LAMMPS (19 Oct 2016)
# equation of state for LJ

variable temp equal 1.3
variable rho  equal 0.67

units lj
atom_style atomic

lattice    fcc ${rho}
lattice    fcc 0.67
Lattice spacing in x,y,z = 1.8141 1.8141 1.8141
region box block 0 5 0 5 0 5
create_box 1 box
Created orthogonal box = (0 0 0) to (9.07051 9.07051 9.07051)
  1 by 1 by 1 MPI processor grid
create_atoms 1 box
Created 500 atoms
mass       1 1.0

pair_style lj/cut 2.5
pair_coeff 1 1 1.0 1.0 2.5

velocity   all create ${temp} 87287
velocity   all create 1.3 87287

neighbor   0.3 bin
neigh_modify every 20 delay 0 check no

fix        1 all nvt temp ${temp} ${temp} 100
fix        1 all nvt temp 1.3 ${temp} 100
fix        1 all nvt temp 1.3 1.3 100
dump       1 all custom 70000 dump_t${temp}_r${rho}.lammpstrj id type x y z
dump       1 all custom 70000 dump_t1.3_r${rho}.lammpstrj id type x y z
dump       1 all custom 70000 dump_t1.3_r0.67.lammpstrj id type x y z
thermo     2000
thermo_style  custom step press vol temp
thermo_modify flush yes

run 500000
Neighbor list info ...
  1 neighbor list requests
  update every 20 steps, delay 0 steps, check no
  max neighbors/atom: 2000, page size: 100000
  master list distance cutoff = 2.8
  ghost atom cutoff = 2.8
  binsize = 1.4 -> bins = 7 7 7
Memory usage per processor = 3.32306 Mbytes
Step Press Volume Temp 
       0   -4.0603835    746.26866          1.3 
    2000   0.17821478    746.26866    0.9254193 
    4000   0.45935432    746.26866   0.93006843 
    6000   0.27431709    746.26866   0.93967233 
    8000   0.42264387    746.26866   0.93913495 
   10000   0.23376564    746.26866   0.97889571 
   12000   0.26573508    746.26866   0.97499077 
   14000   0.34448327    746.26866    1.0214131 
   16000   0.28907876    746.26866    1.0185975 
   18000   0.49229661    746.26866    1.0216725 
   20000   0.33438664    746.26866    1.0440917 
   22000   0.54714372    746.26866    1.0027897 
   24000   0.36448917    746.26866     1.071115 
   26000    0.4698308    746.26866    1.0817046 
   28000   0.54066862    746.26866    1.0644841 
   30000   0.46150887    746.26866    1.1421582 
   32000   0.47567454    746.26866    1.1095566 
   34000   0.73964643    746.26866    1.1158538 
   36000   0.58847213    746.26866    1.1574045 
   38000   0.68316231    746.26866    1.1298441 
   40000   0.65313737    746.26866    1.1942327 
   42000   0.76529321    746.26866    1.1743991 
   44000   0.96345035    746.26866    1.1758097 
   46000   0.83603034    746.26866    1.2040685 
   48000   0.98947835    746.26866    1.1669894 
   50000   0.74713069    746.26866    1.2417448 
   52000    0.8489205    746.26866    1.2475112 
   54000   0.77322992    746.26866     1.252398 
   56000    1.0597255    746.26866    1.2397224 
   58000    1.1535897    746.26866    1.2583371 
   60000   0.95626155    746.26866     1.282778 
   62000    1.2223045    746.26866    1.2626058 
   64000    1.1165813    746.26866    1.2852495 
   66000    1.0768101    746.26866    1.2995494 
   68000    1.3093795    746.26866    1.2665809 
   70000    1.1888135    746.26866    1.3209006 
   72000    1.1799142    746.26866    1.3072931 
   74000    1.1167019    746.26866    1.3461229 
   76000    1.5520399    746.26866    1.2635152 
   78000    1.0877618    746.26866    1.3525504 
   80000    1.2946255    746.26866    1.3319332 
   82000    1.1274533    746.26866    1.3672727 
   84000     1.126541    746.26866    1.3406595 
   86000    1.5386379    746.26866    1.2893733 
   88000    1.5974305    746.26866    1.3108723 
   90000    1.2351811    746.26866    1.3739425 
   92000    1.2745222    746.26866    1.3239592 
   94000    1.1603109    746.26866    1.3663742 
   96000    1.2180378    746.26866    1.3397935 
   98000    1.3111622    746.26866    1.3342875 
  100000    1.0601497    746.26866    1.3651906 
  102000    1.2296998    746.26866    1.3209374 
  104000    1.1721501    746.26866    1.3549603 
  106000    1.1999306    746.26866    1.3393386 
  108000    1.1099816    746.26866    1.3320232 
  110000    1.2691013    746.26866      1.31328 
  112000    1.1994287    746.26866    1.3096618 
  114000    1.2389394    746.26866    1.3192511 
  116000   0.94693716    746.26866    1.3285174 
  118000    1.3585269    746.26866    1.2751369 
  120000    1.1722615    746.26866    1.3273872 
  122000    1.3244298    746.26866    1.2558704 
  124000    1.2727103    746.26866    1.2743262 
  126000    1.0190999    746.26866    1.2944578 
  128000    1.0156883    746.26866    1.2912017 
  130000    1.0250135    746.26866    1.3026173 
  132000    1.2982805    746.26866    1.2593146 
  134000   0.87551083    746.26866    1.3052056 
  136000   0.96033842    746.26866    1.2936415 
  138000    1.2283339    746.26866    1.2597035 
  140000    1.2106026    746.26866    1.2509831 
  142000    1.3529919    746.26866    1.2181834 
  144000    1.0250356    746.26866     1.299848 
  146000    1.1855614    746.26866    1.2499227 
  148000    1.3172952    746.26866    1.2334973 
  150000    1.2464046    746.26866    1.2841926 
  152000     1.015206    746.26866    1.2744963 
  154000     1.306241    746.26866    1.2443304 
  156000    1.2164759    746.26866    1.2568299 
  158000    1.2216463    746.26866    1.2628651 
  160000    1.1845271    746.26866    1.2451739 
  162000     1.442825    746.26866    1.2375552 
  164000    1.0705281    746.26866    1.2975065 
  166000    1.4513936    746.26866     1.232988 
  168000    1.1481734    746.26866    1.2930494 
  170000    1.0470936    746.26866    1.3309724 
  172000    1.3118761    746.26866    1.3048416 
  174000    1.0730811    746.26866    1.3192946 
  176000    1.1455803    746.26866    1.3205143 
  178000    1.0747974    746.26866    1.3428221 
  180000    1.3130601    746.26866    1.3127248 
  182000    1.3212215    746.26866    1.3150145 
  184000    1.2063205    746.26866    1.3137621 
  186000    1.0884252    746.26866    1.3411766 
  188000    1.3909661    746.26866    1.2887906 
  190000    1.3431076    746.26866    1.2992823 
  192000    1.1939014    746.26866    1.3262483 
  194000    1.1985777    746.26866     1.337853 
  196000    1.1643951    746.26866    1.3085243 
  198000    1.4287984    746.26866    1.3091745 
  200000    1.4750551    746.26866    1.2697126 
  202000    1.3431237    746.26866    1.2791697 
  204000    1.1284985    746.26866    1.3238009 
  206000    1.2119598    746.26866    1.3100622 
  208000    1.4944968    746.26866    1.2646272 
  210000    1.2567149    746.26866    1.3324114 
  212000    1.2703895    746.26866    1.3132363 
  214000    1.2241899    746.26866     1.328289 
  216000    1.1769873    746.26866     1.304462 
  218000   0.86093296    746.26866     1.344211 
  220000    1.3514479    746.26866    1.2612122 
  222000     1.154992    746.26866    1.3263649 
  224000    1.2483222    746.26866     1.274496 
  226000    1.0744901    746.26866    1.3061019 
  228000    1.3600248    746.26866    1.2491024 
  230000    1.1567462    746.26866    1.3090196 
  232000   0.92673761    746.26866    1.3183183 
  234000     1.154823    746.26866    1.3047276 
  236000   0.86055156    746.26866    1.3588789 
  238000    1.0116926    746.26866    1.3023077 
  240000    1.1062572    746.26866    1.2996412 
  242000   0.94331217    746.26866    1.3390269 
  244000    1.2636692    746.26866    1.2996395 
  246000    0.9111036    746.26866    1.3277485 
  248000   0.95476179    746.26866    1.3363384 
  250000    1.1206199    746.26866    1.2983616 
  252000    1.2114712    746.26866    1.3025716 
  254000    1.0924077    746.26866    1.3247284 
  256000    1.4148872    746.26866    1.2748581 
  258000     1.456378    746.26866    1.2828697 
  260000    1.3701872    746.26866    1.2876593 
  262000    1.2239203    746.26866    1.3077684 
  264000    1.3046599    746.26866    1.3299978 
  266000     1.358348    746.26866    1.3256309 
  268000    1.1357467    746.26866    1.3731764 
  270000    1.4592984    746.26866    1.3131505 
  272000    1.2929243    746.26866    1.3431925 
  274000    1.2027861    746.26866    1.3484136 
  276000    1.2884711    746.26866    1.3472761 
  278000    1.1972814    746.26866    1.3294297 
  280000    1.3332923    746.26866    1.3151454 
  282000    1.3122946    746.26866    1.3148595 
  284000    1.4641437    746.26866    1.3189685 
  286000    1.2653904    746.26866     1.318604 
  288000    1.3750539    746.26866    1.3116761 
  290000    1.6475345    746.26866    1.2602965 
  292000    1.1445423    746.26866    1.3454491 
  294000    1.2181391    746.26866     1.324368 
  296000    1.3069418    746.26866    1.3094987 
  298000     1.112967    746.26866    1.3409496 
  300000    1.3965203    746.26866    1.2625835 
  302000    1.4128836    746.26866    1.2497089 
  304000    1.1649373    746.26866    1.2631779 
  306000    1.1650357    746.26866    1.2654383 
  308000   0.80465676    746.26866    1.3007707 
  310000    1.1361623    746.26866    1.2696667 
  312000    1.0318709    746.26866    1.2636332 
  314000    1.1888104    746.26866    1.2955812 
  316000    1.1538974    746.26866    1.2600328 
  318000   0.92742425    746.26866    1.2600631 
  320000    1.1172536    746.26866    1.2195546 
  322000    1.0043634    746.26866     1.239728 
  324000    1.1329022    746.26866    1.2138881 
  326000   0.88135302    746.26866    1.2729836 
  328000   0.79239113    746.26866    1.2593848 
  330000    1.0686622    746.26866     1.213499 
  332000   0.97187635    746.26866    1.2334466 
  334000   0.93660425    746.26866    1.2329844 
  336000    1.0632102    746.26866    1.2084683 
  338000    1.2057629    746.26866    1.2137976 
  340000   0.99999743    746.26866    1.2579816 
  342000   0.85879726    746.26866    1.2840907 
  344000     1.108022    746.26866    1.2356224 
  346000    1.1772458    746.26866    1.2479534 
  348000   0.95704431    746.26866    1.2707323 
  350000    1.0434773    746.26866     1.269039 
  352000    1.1094394    746.26866    1.2833571 
  354000    0.9031414    746.26866    1.3328664 
  356000    1.2123396    746.26866    1.2990421 
  358000    1.2042903    746.26866    1.2671947 
  360000    1.2289746    746.26866    1.3009418 
  362000    1.1443411    746.26866    1.3096088 
  364000   0.99829417    746.26866    1.3238585 
  366000     1.327918    746.26866    1.2778221 
  368000    1.3602293    746.26866    1.2963325 
  370000     1.225864    746.26866    1.2968374 
  372000    1.1476027    746.26866    1.3393423 
  374000    1.3224415    746.26866    1.3110809 
  376000    1.1335374    746.26866     1.330963 
  378000    1.2205162    746.26866     1.306555 
  380000    1.2011632    746.26866    1.3038472 
  382000    1.2877542    746.26866    1.2582292 
  384000   0.96893961    746.26866    1.3549271 
  386000    1.0470713    746.26866    1.3180846 
  388000    1.2602821    746.26866    1.2992483 
  390000    1.1576341    746.26866    1.3132832 
  392000   0.96793153    746.26866    1.3423649 
  394000    1.4175432    746.26866    1.2817557 
  396000     1.075356    746.26866    1.3157055 
  398000   0.88464355    746.26866    1.3323209 
  400000    1.5422448    746.26866    1.2689738 
  402000    1.0187422    746.26866    1.3024083 
  404000    1.6365848    746.26866    1.2518084 
  406000    1.2221469    746.26866    1.2827799 
  408000    1.3289354    746.26866     1.275988 
  410000    1.5806095    746.26866     1.275824 
  412000     1.325938    746.26866    1.2868576 
  414000    1.2027003    746.26866    1.3086586 
  416000    1.2096075    746.26866     1.316592 
  418000    1.2880743    746.26866    1.2970866 
  420000    1.3170716    746.26866    1.3166691 
  422000    1.2023575    746.26866    1.3240441 
  424000    1.3055143    746.26866    1.3363201 
  426000    1.2853432    746.26866    1.3256713 
  428000    1.2862752    746.26866    1.3316974 
  430000    1.3822205    746.26866    1.3193803 
  432000    1.3595455    746.26866    1.3454827 
  434000    1.5627831    746.26866    1.3047243 
  436000    1.3341505    746.26866    1.3454644 
  438000    1.2275228    746.26866    1.3691345 
  440000    1.2946313    746.26866    1.3481946 
  442000    1.4101661    746.26866    1.3319935 
  444000    1.3236409    746.26866    1.3637832 
  446000    1.5182326    746.26866    1.3362513 
  448000    1.2484379    746.26866    1.3828597 
  450000    1.4160757    746.26866    1.3506705 
  452000    1.2873007    746.26866    1.3753009 
  454000    1.3130404    746.26866    1.3579127 
  456000    1.2982459    746.26866    1.3468944 
  458000     1.408475    746.26866    1.3278801 
  460000    1.4999437    746.26866    1.3059788 
  462000    1.4765681    746.26866    1.3046304 
  464000    1.3160766    746.26866    1.3330377 
  466000    1.1994216    746.26866    1.3515272 
  468000    1.1356319    746.26866    1.3406784 
  470000    1.0629017    746.26866    1.3315478 
  472000    1.2206181    746.26866     1.273442 
  474000    1.1020103    746.26866    1.3027791 
  476000   0.94032911    746.26866    1.2785176 
  478000     1.417009    746.26866    1.2006142 
  480000    1.2440136    746.26866    1.2249609 
  482000    1.1868294    746.26866    1.2045151 
  484000   0.82564544    746.26866    1.2430556 
  486000    1.2431955    746.26866    1.1689055 
  488000   0.82028775    746.26866    1.2006261 
  490000   0.92711337    746.26866    1.1868964 
  492000   0.82958494    746.26866     1.195826 
  494000   0.88947462    746.26866    1.1700887 
  496000    0.9815487    746.26866    1.1467476 
  498000   0.98981597    746.26866    1.1630696 
  500000   0.79805262    746.26866    1.1911772 
Loop time of 136.593 on 1 procs for 500000 steps with 500 atoms

Performance: 1581342.050 tau/day, 3660.514 timesteps/s
95.2% CPU use with 1 MPI tasks x no OpenMP threads

MPI task timing breakdown:
Section |  min time  |  avg time  |  max time  |%varavg| %total
---------------------------------------------------------------
Pair    | 108.7      | 108.7      | 108.7      |   0.0 | 79.58
Neigh   | 17.926     | 17.926     | 17.926     |   0.0 | 13.12
Comm    | 4.8763     | 4.8763     | 4.8763     |   0.0 |  3.57
Output  | 0.025045   | 0.025045   | 0.025045   |   0.0 |  0.02
Modify  | 4.1599     | 4.1599     | 4.1599     |   0.0 |  3.05
Other   |            | 0.9087     |            |       |  0.67

Nlocal:    500 ave 500 max 500 min
Histogram: 1 0 0 0 0 0 0 0 0 0
Nghost:    1585 ave 1585 max 1585 min
Histogram: 1 0 0 0 0 0 0 0 0 0
Neighs:    15040 ave 15040 max 15040 min
Histogram: 1 0 0 0 0 0 0 0 0 0

Total # of neighbors = 15040
Ave neighs/atom = 30.08
Neighbor list builds = 25000
Dangerous builds not checked
Total wall time: 0:02:16
