LAMMPS (19 Oct 2016)
# equation of state for LJ

variable temp equal 1.3
variable rho  equal 0.881

units lj
atom_style atomic

lattice    fcc ${rho}
lattice    fcc 0.881
Lattice spacing in x,y,z = 1.65588 1.65588 1.65588
region box block 0 5 0 5 0 5
create_box 1 box
Created orthogonal box = (0 0 0) to (8.27938 8.27938 8.27938)
  1 by 1 by 1 MPI processor grid
create_atoms 1 box
Created 500 atoms
mass       1 1.0

pair_style lj/cut 2.5
pair_coeff 1 1 1.0 1.0 2.5

velocity   all create ${temp} 87287
velocity   all create 1.3 87287

neighbor   0.3 bin
neigh_modify every 20 delay 0 check no

fix        1 all nvt temp ${temp} ${temp} 100
fix        1 all nvt temp 1.3 ${temp} 100
fix        1 all nvt temp 1.3 1.3 100
dump       1 all custom 70000 dump_t${temp}_r${rho}.lammpstrj id type x y z
dump       1 all custom 70000 dump_t1.3_r${rho}.lammpstrj id type x y z
dump       1 all custom 70000 dump_t1.3_r0.881.lammpstrj id type x y z
thermo     2000
thermo_style  custom step press vol temp
thermo_modify flush yes

run 500000
Neighbor list info ...
  1 neighbor list requests
  update every 20 steps, delay 0 steps, check no
  max neighbors/atom: 2000, page size: 100000
  master list distance cutoff = 2.8
  ghost atom cutoff = 2.8
  binsize = 1.4 -> bins = 6 6 6
Memory usage per processor = 3.32155 Mbytes
Step Press Volume Temp 
       0   -4.8906385    567.53689          1.3 
    2000  -0.38922508    567.53689   0.69623923 
    4000 -0.032360042    567.53689   0.66305368 
    6000  -0.42862174    567.53689    0.7296224 
    8000  -0.37165162    567.53689   0.74573711 
   10000  -0.20411784    567.53689   0.74229007 
   12000  -0.10951236    567.53689   0.74657628 
   14000   0.11524413    567.53689   0.72989937 
   16000   0.17513192    567.53689    0.7402152 
   18000 -0.060848225    567.53689   0.78093494 
   20000   0.43312462    567.53689   0.73466765 
   22000  0.079813933    567.53689   0.80893598 
   24000   0.11032122    567.53689    0.8341159 
   26000   0.27639601    567.53689   0.83695081 
   28000   0.56415622    567.53689   0.81233939 
   30000   0.58804844    567.53689   0.83727725 
   32000   0.64545416    567.53689   0.85512942 
   34000    1.6298592    567.53689   0.75608953 
   36000     1.810539    567.53689   0.75701674 
   38000    1.9414404    567.53689   0.75408882 
   40000    1.9301527    567.53689   0.79066327 
   42000    2.1331823    567.53689   0.78271865 
   44000    2.0632387    567.53689   0.83194488 
   46000    2.3431957    567.53689   0.82812462 
   48000    2.3443801    567.53689   0.84422614 
   50000    2.7029715    567.53689   0.82064789 
   52000    2.5261445    567.53689   0.86954715 
   54000    2.6212662    567.53689   0.89118402 
   56000    2.9554696    567.53689   0.87507317 
   58000    2.9805297    567.53689   0.90986542 
   60000    3.0789134    567.53689   0.91872188 
   62000    3.3858949    567.53689   0.89783679 
   64000     3.136738    567.53689   0.97737495 
   66000    3.1701268    567.53689     1.009303 
   68000    3.3088724    567.53689    1.0091324 
   70000    3.7256529    567.53689    0.9952413 
   72000    3.6204078    567.53689    1.0262398 
   74000    3.8092524    567.53689    1.0238159 
   76000    4.1386186    567.53689    1.0140496 
   78000    3.9404498    567.53689    1.0713131 
   80000     3.839184    567.53689    1.1201969 
   82000    4.1276149    567.53689    1.1156252 
   84000    4.3341479    567.53689    1.1095448 
   86000    4.2356674    567.53689    1.1562312 
   88000    4.7157243    567.53689    1.1110403 
   90000     4.636765    567.53689    1.1491355 
   92000    4.5811135    567.53689    1.1940186 
   94000     4.747049    567.53689    1.1980676 
   96000    4.9427498    567.53689     1.205278 
   98000    4.9764868    567.53689    1.2172652 
  100000    4.9365513    567.53689    1.2495995 
  102000    4.7779816    567.53689     1.309089 
  104000    5.2436987    567.53689    1.2530433 
  106000    5.3911614    567.53689    1.2554211 
  108000    5.1068414    567.53689     1.330614 
  110000    5.1850387    567.53689    1.3332638 
  112000    5.5128192    567.53689    1.3318618 
  114000    5.3841975    567.53689    1.3273209 
  116000    5.7428797    567.53689    1.3176924 
  118000    5.6439342    567.53689    1.3402942 
  120000    5.5600016    567.53689    1.3639574 
  122000    5.7545171    567.53689    1.3494923 
  124000    5.8460396    567.53689    1.3403512 
  126000    5.4327629    567.53689    1.4083206 
  128000    5.7964969    567.53689    1.3702749 
  130000    6.0973845    567.53689    1.3341112 
  132000    5.7454981    567.53689    1.3792065 
  134000    5.8495321    567.53689    1.3761446 
  136000    5.6511692    567.53689      1.40251 
  138000    5.6033305    567.53689    1.3997166 
  140000     6.195405    567.53689    1.3234122 
  142000    5.7355426    567.53689    1.3689763 
  144000    5.7843625    567.53689    1.3567689 
  146000    6.1488645    567.53689    1.3162524 
  148000    5.8937354    567.53689    1.3330741 
  150000    5.5509441    567.53689    1.3819183 
  152000    5.8245698    567.53689    1.3077448 
  154000    5.6427872    567.53689    1.3245165 
  156000    5.7129719    567.53689    1.3123136 
  158000    5.4552863    567.53689    1.3342217 
  160000    5.3557999    567.53689    1.3335315 
  162000    5.3958569    567.53689    1.3087821 
  164000    5.0119675    567.53689    1.3441841 
  166000    5.5872011    567.53689    1.2620707 
  168000    5.4008208    567.53689    1.2472948 
  170000    4.8935739    567.53689     1.344788 
  172000    5.2728678    567.53689    1.2570825 
  174000    4.9357776    567.53689    1.2931122 
  176000    5.1787328    567.53689    1.2390046 
  178000    5.1525728    567.53689    1.2574268 
  180000    5.0784923    567.53689    1.2369459 
  182000    5.1660717    567.53689     1.217681 
  184000    4.9735871    567.53689    1.2486331 
  186000    4.7329397    567.53689    1.2782278 
  188000    4.9994962    567.53689    1.2231507 
  190000     5.007609    567.53689    1.2179562 
  192000    4.8907749    567.53689    1.2355237 
  194000      4.67807    567.53689    1.2772834 
  196000    4.7511976    567.53689    1.2424642 
  198000    4.7849389    567.53689    1.2491832 
  200000    4.8473208    567.53689    1.2514509 
  202000    4.9047281    567.53689    1.2609748 
  204000    5.1476961    567.53689    1.2280922 
  206000    5.0265695    567.53689    1.2453133 
  208000    5.1167906    567.53689     1.251386 
  210000    4.8037616    567.53689    1.3004392 
  212000    5.3337577    567.53689     1.226632 
  214000    5.3896538    567.53689    1.2330555 
  216000    5.2158578    567.53689    1.2714505 
  218000    5.1865536    567.53689    1.2768227 
  220000    5.0436249    567.53689    1.3194588 
  222000    5.4736373    567.53689     1.286139 
  224000    4.8371985    567.53689    1.3614721 
  226000    5.0087347    567.53689    1.3567457 
  228000    5.3273507    567.53689    1.3207397 
  230000    5.7713583    567.53689     1.264297 
  232000    5.4714586    567.53689    1.3207577 
  234000    5.6546739    567.53689     1.308873 
  236000    5.6444368    567.53689    1.3212497 
  238000    5.5941355    567.53689    1.3233868 
  240000     5.371814    567.53689    1.3677287 
  242000    5.4794757    567.53689    1.3668852 
  244000    5.5983647    567.53689    1.3403314 
  246000    5.6434335    567.53689    1.3288484 
  248000    5.4610508    567.53689    1.3719916 
  250000    5.3818683    567.53689    1.3715291 
  252000    5.2829394    567.53689    1.3980329 
  254000    5.5132776    567.53689    1.3673631 
  256000    5.7258785    567.53689    1.3323353 
  258000    5.6904977    567.53689    1.3274282 
  260000    5.5352113    567.53689     1.360768 
  262000    5.6183208    567.53689    1.3349917 
  264000    5.8425354    567.53689    1.2852219 
  266000    5.4363579    567.53689    1.3391959 
  268000    5.7557423    567.53689    1.2968766 
  270000    5.7076691    567.53689     1.291457 
  272000     5.494424    567.53689    1.3245111 
  274000    5.5397837    567.53689     1.300794 
  276000    5.8299972    567.53689    1.2484785 
  278000    5.3636682    567.53689    1.3080549 
  280000    4.8842633    567.53689    1.3775395 
  282000     5.203652    567.53689    1.3180006 
  284000    5.5045557    567.53689    1.2576487 
  286000    5.3083711    567.53689    1.2765149 
  288000    5.4454718    567.53689    1.2567262 
  290000     4.996757    567.53689     1.325129 
  292000    5.1348019    567.53689    1.2873945 
  294000    5.0279139    567.53689    1.2898713 
  296000    5.0108262    567.53689    1.2721029 
  298000    4.9357785    567.53689    1.2919754 
  300000    5.0921648    567.53689    1.2877437 
  302000    5.3365813    567.53689    1.2208512 
  304000    5.1657321    567.53689    1.2483038 
  306000     5.330047    567.53689    1.2269681 
  308000    4.8366545    567.53689    1.2972609 
  310000    5.1329447    567.53689    1.2564755 
  312000    5.0068592    567.53689    1.2675031 
  314000    4.7595388    567.53689    1.3051743 
  316000    4.8964774    567.53689    1.2848604 
  318000    5.1264166    567.53689    1.2623996 
  320000    4.9765111    567.53689    1.2827418 
  322000    4.8107555    567.53689    1.3063487 
  324000     4.960252    567.53689    1.3096728 
  326000    5.2866818    567.53689     1.252671 
  328000    5.2887421    567.53689    1.2765103 
  330000    5.2198378    567.53689    1.2795611 
  332000    5.1751969    567.53689    1.2948971 
  334000    5.1823778    567.53689    1.2949829 
  336000    5.5719647    567.53689    1.2559044 
  338000    5.6204159    567.53689    1.2463776 
  340000    5.4068091    567.53689     1.296792 
  342000    5.4127205    567.53689    1.3049032 
  344000    5.2984415    567.53689    1.3208433 
  346000    5.2854209    567.53689    1.3351712 
  348000    5.3306168    567.53689    1.3364445 
  350000    5.3987033    567.53689    1.3406295 
  352000    5.3874373    567.53689    1.3372877 
  354000    5.2926371    567.53689    1.3470837 
  356000    5.3792903    567.53689    1.3730834 
  358000    5.6875964    567.53689    1.3054876 
  360000    5.5544315    567.53689    1.3272098 
  362000    5.4323387    567.53689    1.3491147 
  364000     5.689651    567.53689    1.3068329 
  366000    5.4835382    567.53689    1.3490072 
  368000    5.7493365    567.53689    1.2867084 
  370000    5.2379295    567.53689    1.3755392 
  372000    5.8602576    567.53689    1.3020558 
  374000    5.5453448    567.53689    1.3263188 
  376000    5.3363695    567.53689    1.3539449 
  378000    5.1738206    567.53689    1.3804883 
  380000     5.597495    567.53689    1.3012093 
  382000    5.4862067    567.53689    1.3084785 
  384000    5.2765948    567.53689    1.3474338 
  386000    5.5258452    567.53689     1.304906 
  388000    5.6630529    567.53689    1.2801689 
  390000    5.0886886    567.53689    1.3458585 
  392000    5.1081295    567.53689    1.3516762 
  394000    5.5215747    567.53689    1.2760294 
  396000    5.2708138    567.53689    1.3346936 
  398000    5.0346239    567.53689     1.329581 
  400000    5.3052303    567.53689     1.287314 
  402000    5.1760666    567.53689    1.3165276 
  404000    5.1306011    567.53689    1.3012897 
  406000     5.294469    567.53689    1.2737991 
  408000    5.5976964    567.53689    1.2221328 
  410000    5.1381074    567.53689    1.2797177 
  412000    5.2524215    567.53689    1.2653285 
  414000     5.102532    567.53689    1.2872946 
  416000    5.0547391    567.53689    1.2811575 
  418000    5.2393028    567.53689    1.2554842 
  420000    5.2154918    567.53689    1.2615661 
  422000    5.0225333    567.53689     1.276513 
  424000    5.0459175    567.53689    1.2675644 
  426000      5.21853    567.53689    1.2489968 
  428000    5.1171595    567.53689    1.2728663 
  430000    5.0452341    567.53689    1.2956652 
  432000    5.1432268    567.53689    1.2790658 
  434000    5.1443106    567.53689    1.2698366 
  436000    5.1482587    567.53689     1.286803 
  438000    5.1244691    567.53689    1.2895625 
  440000    5.2131633    567.53689    1.2709754 
  442000     5.362104    567.53689     1.248517 
  444000    5.4002462    567.53689    1.2728833 
  446000    5.3272835    567.53689    1.2864473 
  448000    5.2194108    567.53689    1.2890667 
  450000    5.3059068    567.53689    1.2858137 
  452000    5.3893716    567.53689    1.2852767 
  454000    5.4269276    567.53689    1.2901184 
  456000    5.3027727    567.53689    1.3053814 
  458000    5.1275581    567.53689    1.3380678 
  460000    5.7744258    567.53689    1.2501973 
  462000    5.4354197    567.53689    1.3003993 
  464000    5.1310653    567.53689    1.3450538 
  466000    5.6517354    567.53689    1.2937897 
  468000    5.7638476    567.53689    1.2829134 
  470000    5.7220735    567.53689    1.2718804 
  472000    5.7301546    567.53689     1.282608 
  474000    5.0800037    567.53689    1.3799923 
  476000    5.7531601    567.53689    1.2853939 
  478000    5.4069205    567.53689    1.3370013 
  480000    5.6049036    567.53689    1.3098923 
  482000    5.4454371    567.53689     1.323838 
  484000    4.9651029    567.53689    1.3955281 
  486000    5.1251867    567.53689    1.3729453 
  488000    5.7471728    567.53689    1.2743832 
  490000    5.7646132    567.53689    1.2855193 
  492000    5.8091196    567.53689    1.2813729 
  494000    5.3581798    567.53689    1.3273097 
  496000    5.4687223    567.53689    1.3302829 
  498000    5.5294785    567.53689    1.3005902 
  500000    5.3754679    567.53689    1.3173037 
Loop time of 173.825 on 1 procs for 500000 steps with 500 atoms

Performance: 1242627.022 tau/day, 2876.451 timesteps/s
96.8% CPU use with 1 MPI tasks x no OpenMP threads

MPI task timing breakdown:
Section |  min time  |  avg time  |  max time  |%varavg| %total
---------------------------------------------------------------
Pair    | 140.66     | 140.66     | 140.66     |   0.0 | 80.92
Neigh   | 22.777     | 22.777     | 22.777     |   nan | 13.10
Comm    | 5.3311     | 5.3311     | 5.3311     |   0.0 |  3.07
Output  | 0.022788   | 0.022788   | 0.022788   |   0.0 |  0.01
Modify  | 4.0381     | 4.0381     | 4.0381     |   0.0 |  2.32
Other   |            | 0.998      |            |       |  0.57

Nlocal:    500 ave 500 max 500 min
Histogram: 1 0 0 0 0 0 0 0 0 0
Nghost:    1833 ave 1833 max 1833 min
Histogram: 1 0 0 0 0 0 0 0 0 0
Neighs:    19734 ave 19734 max 19734 min
Histogram: 1 0 0 0 0 0 0 0 0 0

Total # of neighbors = 19734
Ave neighs/atom = 39.468
Neighbor list builds = 25000
Dangerous builds not checked
Total wall time: 0:02:53
