LAMMPS (19 Oct 2016)
# equation of state for LJ

variable temp equal 1.3
variable rho  equal 0.85

units lj
atom_style atomic

lattice    fcc ${rho}
lattice    fcc 0.85
Lattice spacing in x,y,z = 1.67577 1.67577 1.67577
region box block 0 5 0 5 0 5
create_box 1 box
Created orthogonal box = (0 0 0) to (8.37884 8.37884 8.37884)
  1 by 1 by 1 MPI processor grid
create_atoms 1 box
Created 500 atoms
mass       1 1.0

pair_style lj/cut 2.5
pair_coeff 1 1 1.0 1.0 2.5

velocity   all create ${temp} 87287
velocity   all create 1.3 87287

neighbor   0.3 bin
neigh_modify every 20 delay 0 check no

fix        1 all nvt temp ${temp} ${temp} 100
fix        1 all nvt temp 1.3 ${temp} 100
fix        1 all nvt temp 1.3 1.3 100
dump       1 all custom 70000 dump_t${temp}_r${rho}.lammpstrj id type x y z
dump       1 all custom 70000 dump_t1.3_r${rho}.lammpstrj id type x y z
dump       1 all custom 70000 dump_t1.3_r0.85.lammpstrj id type x y z
thermo     2000
thermo_style  custom step press vol temp
thermo_modify flush yes

run 500000
Neighbor list info ...
  1 neighbor list requests
  update every 20 steps, delay 0 steps, check no
  max neighbors/atom: 2000, page size: 100000
  master list distance cutoff = 2.8
  ghost atom cutoff = 2.8
  binsize = 1.4 -> bins = 6 6 6
Memory usage per processor = 3.32155 Mbytes
Step Press Volume Temp 
       0   -5.1155349    588.23529          1.3 
    2000  -0.19493157    588.23529   0.66239515 
    4000   0.28917069    588.23529   0.62739767 
    6000   0.45556828    588.23529   0.62009709 
    8000   0.37349085    588.23529    0.6384036 
   10000   0.62563064    588.23529   0.61559395 
   12000   0.58092167    588.23529   0.65701851 
   14000   0.53023781    588.23529   0.66422497 
   16000   0.83775376    588.23529   0.64960553 
   18000   0.67129206    588.23529   0.68667616 
   20000   0.78014322    588.23529   0.68996688 
   22000   0.76907082    588.23529   0.71737534 
   24000   0.90274247    588.23529   0.72497207 
   26000    1.1039608    588.23529    0.7126311 
   28000    1.1476261    588.23529   0.73209812 
   30000    1.0550563    588.23529   0.76445399 
   32000    1.3111488    588.23529     0.769194 
   34000    1.1890809    588.23529    0.7936796 
   36000    1.2492768    588.23529   0.81737139 
   38000    1.5721474    588.23529   0.79745055 
   40000    1.6395417    588.23529   0.83208738 
   42000    1.8924291    588.23529   0.81514537 
   44000    1.8388577    588.23529   0.84618099 
   46000    1.8727721    588.23529   0.87522591 
   48000    1.7536129    588.23529   0.90824006 
   50000    2.1203052    588.23529   0.90008651 
   52000    2.2204349    588.23529   0.91664044 
   54000    2.1428795    588.23529   0.96590272 
   56000    2.4358896    588.23529   0.93910666 
   58000    2.3728539    588.23529   0.97964747 
   60000    2.4190881    588.23529     1.002141 
   62000     2.774148    588.23529   0.99412992 
   64000    2.3989047    588.23529    1.0693657 
   66000    2.9221042    588.23529    1.0364589 
   68000    2.9498154    588.23529    1.0556787 
   70000    3.2111782    588.23529    1.0621799 
   72000    3.1214419    588.23529    1.1077146 
   74000    3.2190661    588.23529    1.1103256 
   76000      3.76341    588.23529    1.0654447 
   78000    3.5474121    588.23529    1.1178904 
   80000    3.7361073    588.23529    1.1191225 
   82000     3.537579    588.23529    1.1951444 
   84000     3.793436    588.23529    1.1718786 
   86000    3.7064759    588.23529    1.2156019 
   88000    3.6027647    588.23529    1.2578097 
   90000    3.8225573    588.23529    1.2375509 
   92000     4.255946    588.23529    1.2073399 
   94000    3.7243075    588.23529    1.3227716 
   96000     4.276718    588.23529     1.273261 
   98000    4.6892904    588.23529    1.2430381 
  100000    4.4392076    588.23529    1.2688614 
  102000    4.5521673    588.23529    1.3105363 
  104000    4.5263879    588.23529     1.315853 
  106000    4.7450551    588.23529    1.2899548 
  108000    4.9211154    588.23529    1.2722378 
  110000    4.4021425    588.23529    1.3790764 
  112000    4.7476687    588.23529    1.3413776 
  114000    4.5254422    588.23529    1.3776955 
  116000    4.8133028    588.23529    1.3525959 
  118000    4.5653562    588.23529    1.3896493 
  120000    4.7547699    588.23529    1.3718867 
  122000    4.8835499    588.23529    1.3376414 
  124000    4.5638905    588.23529    1.4215918 
  126000    4.6200972    588.23529    1.4017967 
  128000    4.7504113    588.23529    1.3680839 
  130000    4.5379312    588.23529    1.4085815 
  132000    4.6183165    588.23529    1.3856102 
  134000    4.9410272    588.23529     1.337891 
  136000    4.5032967    588.23529    1.4072985 
  138000     4.884037    588.23529    1.3345611 
  140000     4.900425    588.23529    1.3145936 
  142000    4.5934514    588.23529    1.3483119 
  144000    4.4760199    588.23529    1.3438256 
  146000    4.7279077    588.23529    1.2979258 
  148000    4.3897184    588.23529    1.3437369 
  150000    4.2183259    588.23529    1.3471512 
  152000    4.4951886    588.23529    1.2815416 
  154000    4.2698787    588.23529    1.3051692 
  156000    4.1544457    588.23529    1.3116456 
  158000    4.3030033    588.23529    1.2773017 
  160000    3.9320526    588.23529    1.3234872 
  162000    4.1551927    588.23529    1.2775021 
  164000    4.1023037    588.23529    1.2787046 
  166000    4.2296688    588.23529    1.2366798 
  168000    4.4223302    588.23529    1.2058163 
  170000    4.1431472    588.23529    1.2389457 
  172000    4.0516752    588.23529    1.2390087 
  174000    3.9723132    588.23529    1.2458896 
  176000    4.2468801    588.23529    1.1967823 
  178000    4.2109043    588.23529    1.1934696 
  180000    3.9001069    588.23529    1.2261581 
  182000    3.7987228    588.23529    1.2494619 
  184000    4.0955397    588.23529     1.212743 
  186000    4.1165963    588.23529     1.207493 
  188000    4.0436834    588.23529    1.2337471 
  190000    4.0193387    588.23529    1.2408488 
  192000    3.5253714    588.23529    1.3043593 
  194000    4.1502713    588.23529    1.2178647 
  196000    4.0532041    588.23529    1.2553012 
  198000    3.8448367    588.23529    1.2850461 
  200000    3.7957061    588.23529    1.3052277 
  202000    4.1025398    588.23529    1.2781162 
  204000    4.4924253    588.23529    1.2249041 
  206000    4.3085485    588.23529    1.2514031 
  208000    4.2639485    588.23529      1.29426 
  210000    4.3634004    588.23529    1.2717833 
  212000    3.9020452    588.23529    1.3769678 
  214000    4.3216301    588.23529    1.3088436 
  216000    4.3065591    588.23529    1.3172418 
  218000    4.3177818    588.23529    1.3115767 
  220000    4.5864112    588.23529    1.3008524 
  222000    4.1973239    588.23529    1.3721095 
  224000    4.2776599    588.23529    1.3751901 
  226000     4.523411    588.23529    1.3467442 
  228000    4.5544183    588.23529     1.336686 
  230000    4.7038906    588.23529    1.3331279 
  232000    4.5870018    588.23529    1.3483809 
  234000    4.8891013    588.23529    1.2987662 
  236000    4.6049887    588.23529    1.3349763 
  238000    4.7865715    588.23529     1.329187 
  240000    4.6975526    588.23529    1.3337361 
  242000    4.5527211    588.23529    1.3473724 
  244000    4.6597851    588.23529     1.339551 
  246000    4.8076676    588.23529    1.3037986 
  248000    4.7155984    588.23529    1.3291588 
  250000    4.1904975    588.23529    1.3984278 
  252000    4.3493461    588.23529    1.3572772 
  254000    4.4176153    588.23529    1.3510304 
  256000    4.1963872    588.23529    1.3847142 
  258000    4.4118633    588.23529    1.3430805 
  260000    4.2973598    588.23529    1.3353809 
  262000    4.2158025    588.23529    1.3486635 
  264000    4.5286073    588.23529     1.288054 
  266000    4.1921377    588.23529    1.3178394 
  268000    4.0451035    588.23529      1.36013 
  270000    4.4884232    588.23529    1.2657468 
  272000    4.1638167    588.23529    1.3169396 
  274000    4.0521442    588.23529    1.3107314 
  276000    4.2471701    588.23529    1.2757739 
  278000    3.9557621    588.23529     1.312364 
  280000    4.2649896    588.23529    1.2662449 
  282000    3.9319167    588.23529    1.2931752 
  284000    4.1072415    588.23529    1.2727312 
  286000    4.3121496    588.23529    1.2490057 
  288000    3.9380116    588.23529      1.27185 
  290000    3.5261934    588.23529    1.3487951 
  292000    4.1841661    588.23529    1.2580959 
  294000     4.041109    588.23529    1.2656215 
  296000    4.2203457    588.23529       1.2269 
  298000    3.7372269    588.23529    1.3265693 
  300000    4.2555823    588.23529    1.2369817 
  302000    4.0420697    588.23529    1.2744349 
  304000    4.2201446    588.23529    1.2527384 
  306000    4.3245687    588.23529    1.2507249 
  308000    4.1095366    588.23529    1.2695993 
  310000    4.3104154    588.23529    1.2467657 
  312000    4.5088716    588.23529    1.2097138 
  314000    4.4136624    588.23529    1.2351418 
  316000      4.40089    588.23529    1.2724538 
  318000    4.4266541    588.23529    1.2617225 
  320000    4.2685941    588.23529    1.2902293 
  322000     4.452575    588.23529    1.2763856 
  324000    4.7454339    588.23529    1.2293672 
  326000     4.296998    588.23529    1.2983188 
  328000    3.9509135    588.23529    1.3715841 
  330000    4.2143084    588.23529     1.326298 
  332000    4.7522999    588.23529     1.262642 
  334000    4.2888784    588.23529     1.336779 
  336000    4.2745143    588.23529     1.340003 
  338000    4.3555784    588.23529    1.3504439 
  340000    4.1255051    588.23529    1.3915089 
  342000    4.2480561    588.23529     1.365541 
  344000    4.6952897    588.23529    1.3032052 
  346000    4.7297192    588.23529    1.3194837 
  348000    4.5362352    588.23529    1.3213394 
  350000    4.2954666    588.23529    1.3703342 
  352000    4.1575617    588.23529    1.3808058 
  354000    4.1095673    588.23529    1.3983576 
  356000    4.6785611    588.23529     1.299491 
  358000     4.603543    588.23529    1.2923677 
  360000    4.3009774    588.23529    1.3666525 
  362000    4.8068077    588.23529    1.2824633 
  364000    4.5867011    588.23529     1.304824 
  366000    4.1411705    588.23529     1.359255 
  368000     4.491602    588.23529    1.3128123 
  370000    4.2575967    588.23529    1.3523248 
  372000    4.5403065    588.23529    1.2982518 
  374000    4.5373584    588.23529    1.2921725 
  376000    4.4421369    588.23529    1.2966168 
  378000    4.5248146    588.23529    1.2817425 
  380000    4.0748188    588.23529    1.3533886 
  382000    4.3111118    588.23529    1.2900591 
  384000    4.3240026    588.23529    1.2861934 
  386000    4.3029916    588.23529    1.2768576 
  388000    4.5550826    588.23529    1.2357927 
  390000    4.4167583    588.23529    1.2465044 
  392000    4.1963139    588.23529    1.2806107 
  394000    4.3921121    588.23529     1.267109 
  396000     3.838456    588.23529    1.3332972 
  398000     4.429888    588.23529    1.2185209 
  400000    4.0333087    588.23529    1.2911524 
  402000    4.2394993    588.23529    1.2561463 
  404000     4.199959    588.23529    1.2700557 
  406000    4.0535352    588.23529     1.297204 
  408000    4.0185433    588.23529    1.2987177 
  410000    4.1302958    588.23529    1.2838911 
  412000    3.9727371    588.23529     1.323849 
  414000    4.0521922    588.23529    1.2836373 
  416000    4.2781984    588.23529    1.2654875 
  418000    4.1953707    588.23529    1.2714724 
  420000    3.8796473    588.23529    1.3248808 
  422000    4.1962028    588.23529    1.2954067 
  424000    4.2368028    588.23529    1.2892232 
  426000    4.3631608    588.23529    1.2583347 
  428000    4.1239055    588.23529    1.3105935 
  430000    4.3581493    588.23529    1.2735288 
  432000    4.2837384    588.23529    1.3017679 
  434000    4.3661506    588.23529    1.2950637 
  436000    4.2293686    588.23529    1.3118224 
  438000    4.6029364    588.23529    1.2687267 
  440000    4.1797439    588.23529    1.3267078 
  442000    4.3542615    588.23529    1.3304885 
  444000     4.534073    588.23529    1.2911671 
  446000    4.2302854    588.23529    1.3490594 
  448000    4.4961437    588.23529    1.3126148 
  450000    4.3515473    588.23529    1.3371151 
  452000    5.0564268    588.23529    1.2428404 
  454000    4.4038365    588.23529    1.3089641 
  456000    4.6121848    588.23529    1.2929454 
  458000     4.447644    588.23529     1.324285 
  460000    4.6574844    588.23529     1.300084 
  462000    4.3356538    588.23529    1.3401579 
  464000    4.3506719    588.23529    1.3525271 
  466000    4.2077918    588.23529    1.3658406 
  468000    4.5118172    588.23529    1.3124704 
  470000    4.6475329    588.23529    1.3039039 
  472000    4.5469354    588.23529    1.3154871 
  474000    4.5303725    588.23529    1.2967285 
  476000    4.3104811    588.23529    1.3217591 
  478000    4.1626322    588.23529    1.3704035 
  480000     4.421968    588.23529    1.3204583 
  482000    4.1788024    588.23529    1.3674704 
  484000    4.3315817    588.23529    1.3266554 
  486000    4.2457236    588.23529     1.316441 
  488000    4.3641707    588.23529     1.312385 
  490000    4.2951847    588.23529    1.3133349 
  492000    4.4195961    588.23529    1.2916745 
  494000    4.4064545    588.23529    1.2850403 
  496000    4.4991825    588.23529    1.2672944 
  498000     4.435863    588.23529    1.2675462 
  500000    4.2127374    588.23529    1.2939377 
Loop time of 165.836 on 1 procs for 500000 steps with 500 atoms

Performance: 1302489.944 tau/day, 3015.023 timesteps/s
97.5% CPU use with 1 MPI tasks x no OpenMP threads

MPI task timing breakdown:
Section |  min time  |  avg time  |  max time  |%varavg| %total
---------------------------------------------------------------
Pair    | 133.44     | 133.44     | 133.44     |   0.0 | 80.46
Neigh   | 22.265     | 22.265     | 22.265     |   0.0 | 13.43
Comm    | 5.2433     | 5.2433     | 5.2433     |   0.0 |  3.16
Output  | 0.028154   | 0.028154   | 0.028154   |   0.0 |  0.02
Modify  | 3.9213     | 3.9213     | 3.9213     |   0.0 |  2.36
Other   |            | 0.9404     |            |       |  0.57

Nlocal:    500 ave 500 max 500 min
Histogram: 1 0 0 0 0 0 0 0 0 0
Nghost:    1817 ave 1817 max 1817 min
Histogram: 1 0 0 0 0 0 0 0 0 0
Neighs:    19023 ave 19023 max 19023 min
Histogram: 1 0 0 0 0 0 0 0 0 0

Total # of neighbors = 19023
Ave neighs/atom = 38.046
Neighbor list builds = 25000
Dangerous builds not checked
Total wall time: 0:02:45
