LAMMPS (19 Oct 2016)
# equation of state for LJ

variable temp equal 1.3
variable rho  equal 0.885

units lj
atom_style atomic

lattice    fcc ${rho}
lattice    fcc 0.885
Lattice spacing in x,y,z = 1.65338 1.65338 1.65338
region box block 0 5 0 5 0 5
create_box 1 box
Created orthogonal box = (0 0 0) to (8.26689 8.26689 8.26689)
  1 by 1 by 1 MPI processor grid
create_atoms 1 box
Created 500 atoms
mass       1 1.0

pair_style lj/cut 2.5
pair_coeff 1 1 1.0 1.0 2.5

velocity   all create ${temp} 87287
velocity   all create 1.3 87287

neighbor   0.3 bin
neigh_modify every 20 delay 0 check no

fix        1 all nvt temp ${temp} ${temp} 100
fix        1 all nvt temp 1.3 ${temp} 100
fix        1 all nvt temp 1.3 1.3 100
dump       1 all custom 70000 dump_t${temp}_r${rho}.lammpstrj id type x y z
dump       1 all custom 70000 dump_t1.3_r${rho}.lammpstrj id type x y z
dump       1 all custom 70000 dump_t1.3_r0.885.lammpstrj id type x y z
thermo     2000
thermo_style  custom step press vol temp
thermo_modify flush yes

run 500000
Neighbor list info ...
  1 neighbor list requests
  update every 20 steps, delay 0 steps, check no
  max neighbors/atom: 2000, page size: 100000
  master list distance cutoff = 2.8
  ghost atom cutoff = 2.8
  binsize = 1.4 -> bins = 6 6 6
Memory usage per processor = 3.32155 Mbytes
Step Press Volume Temp 
       0   -4.8492225    564.97175          1.3 
    2000  -0.42688084    564.97175    0.7059744 
    4000  -0.28482289    564.97175   0.69924492 
    6000  -0.14198538    564.97175   0.69590724 
    8000  -0.37163532    564.97175   0.75182571 
   10000   -0.1911358    564.97175   0.73805949 
   12000  -0.29029153    564.97175   0.77274009 
   14000 -0.054867301    564.97175    0.7558513 
   16000  -0.10808239    564.97175   0.77996062 
   18000  -0.16174436    564.97175   0.81058943 
   20000  -0.05698713    564.97175   0.81593647 
   22000   0.30419872    564.97175   0.79026881 
   24000    0.4764912    564.97175    0.7773771 
   26000   0.51307423    564.97175   0.80707426 
   28000   0.80437396    564.97175   0.78206446 
   30000   0.21821461    564.97175   0.89218508 
   32000   0.80894752    564.97175   0.85144883 
   34000   0.71457007    564.97175   0.87748839 
   36000    1.1119235    564.97175   0.86263498 
   38000    1.0789225    564.97175   0.87896339 
   40000    1.5804687    564.97175   0.83769143 
   42000    2.2442416    564.97175   0.77953938 
   44000    2.4100837    564.97175   0.77901537 
   46000    2.3961359    564.97175   0.82176568 
   48000    2.5712282    564.97175   0.82961465 
   50000    2.8059689    564.97175   0.80913933 
   52000    2.3961862    564.97175   0.90611431 
   54000    2.6711274    564.97175   0.89100655 
   56000    2.7427792    564.97175   0.90862485 
   58000    2.8742171    564.97175   0.91888787 
   60000    3.0376027    564.97175    0.9210193 
   62000    2.9671095    564.97175   0.96757623 
   64000    3.2848686    564.97175   0.96625788 
   66000    3.3592258    564.97175   0.98369994 
   68000    3.3304898    564.97175    1.0216228 
   70000    3.5583339    564.97175    1.0148202 
   72000    3.6392164    564.97175    1.0219016 
   74000    3.7241371    564.97175    1.0480005 
   76000    3.7689204    564.97175     1.070073 
   78000    4.1838993    564.97175    1.0489665 
   80000    3.9042501    564.97175    1.1173598 
   82000    4.3335372    564.97175    1.0782207 
   84000    4.2989705    564.97175    1.1178341 
   86000    4.0299724    564.97175    1.1770143 
   88000    4.4956606    564.97175    1.1567768 
   90000    4.6552197    564.97175    1.1650217 
   92000    4.7956429    564.97175    1.1531918 
   94000    4.9458937    564.97175    1.1757031 
   96000    4.9001039    564.97175    1.2122188 
   98000    5.1531624    564.97175    1.1969323 
  100000    4.9988367    564.97175    1.2440774 
  102000    5.4606149    564.97175     1.225015 
  104000    5.3313499    564.97175    1.2336859 
  106000    5.1658307    564.97175    1.2971235 
  108000    5.4452422    564.97175    1.2827463 
  110000    5.6738583    564.97175    1.2699696 
  112000    5.6266359    564.97175    1.2934275 
  114000    5.3677315    564.97175     1.345343 
  116000    5.7680304    564.97175    1.3179858 
  118000    5.5162646    564.97175    1.3685419 
  120000    5.7392955    564.97175    1.3410531 
  122000    6.0676394    564.97175    1.3252899 
  124000    5.6099679    564.97175    1.3995657 
  126000    6.0969816    564.97175     1.326543 
  128000    5.9316883    564.97175    1.3644591 
  130000    5.9711635    564.97175    1.3693002 
  132000    6.3926164    564.97175    1.3005079 
  134000    6.0588962    564.97175    1.3681106 
  136000    6.3451432    564.97175    1.3379322 
  138000    6.1586423    564.97175    1.3495265 
  140000    6.0494795    564.97175    1.3436314 
  142000    6.0282454    564.97175    1.3498645 
  144000    5.8493539    564.97175    1.3821271 
  146000    6.3394417    564.97175    1.2985112 
  148000    6.0660795    564.97175    1.3440796 
  150000    5.5821801    564.97175    1.4026896 
  152000    5.9635505    564.97175    1.3221321 
  154000    5.4390417    564.97175     1.396222 
  156000    6.0151351    564.97175    1.2984811 
  158000    5.5923588    564.97175     1.350677 
  160000     5.558904    564.97175    1.3558623 
  162000    5.6634447    564.97175    1.3141321 
  164000    5.6257969    564.97175    1.2924909 
  166000    5.9226064    564.97175    1.2235283 
  168000    5.1941602    564.97175     1.317862 
  170000    5.5607592    564.97175    1.2678372 
  172000    5.0724779    564.97175    1.3236194 
  174000    5.0625912    564.97175    1.3003739 
  176000    5.1234204    564.97175    1.2851895 
  178000    5.1246405    564.97175    1.2755509 
  180000    5.2111345    564.97175    1.2447847 
  182000    4.9985064    564.97175    1.2748683 
  184000    4.9484253    564.97175    1.2755778 
  186000    5.1033765    564.97175     1.240927 
  188000    5.0437015    564.97175    1.2444871 
  190000    4.9911992    564.97175    1.2465668 
  192000    4.9556203    564.97175    1.2513101 
  194000    4.9660267    564.97175     1.250059 
  196000    4.8896567    564.97175    1.2683744 
  198000    4.9385956    564.97175      1.28121 
  200000    5.0459034    564.97175    1.2419606 
  202000     4.994063    564.97175    1.2553966 
  204000    5.2935321    564.97175    1.2155507 
  206000     5.139196    564.97175    1.2578665 
  208000    4.8881663    564.97175    1.2892526 
  210000    5.2365853    564.97175    1.2488543 
  212000    5.4370002    564.97175    1.2308987 
  214000    5.4056408    564.97175    1.2547285 
  216000    5.3908665    564.97175    1.2710701 
  218000    5.5358868    564.97175    1.2456894 
  220000    5.5745959    564.97175    1.2720719 
  222000    5.8734867    564.97175    1.2309342 
  224000    5.6939012    564.97175    1.2786269 
  226000    5.3816876    564.97175    1.3190808 
  228000    5.2422316    564.97175    1.3483218 
  230000    5.4804198    564.97175     1.323022 
  232000    6.0944181    564.97175    1.2375166 
  234000    5.6018206    564.97175    1.3244072 
  236000    5.6522909    564.97175    1.3174387 
  238000    6.0945034    564.97175      1.26065 
  240000    5.9477722    564.97175    1.2942584 
  242000    5.8374197    564.97175    1.3259578 
  244000    5.3882259    564.97175    1.3845601 
  246000    5.6752026    564.97175    1.3504835 
  248000     5.754698    564.97175    1.3306664 
  250000    5.8942872    564.97175    1.3374214 
  252000    5.9763733    564.97175    1.3233419 
  254000    5.7960335    564.97175    1.3312238 
  256000     5.883607    564.97175    1.3140101 
  258000    5.7405575    564.97175    1.3421778 
  260000    5.5608604    564.97175    1.3559269 
  262000    5.1732001    564.97175    1.4310054 
  264000    5.8059734    564.97175    1.3311256 
  266000    5.3441576    564.97175    1.3853789 
  268000    5.5948291    564.97175    1.3491876 
  270000    5.7518732    564.97175    1.3132411 
  272000    5.5796619    564.97175    1.3131203 
  274000    5.7287131    564.97175    1.2977792 
  276000    5.6129754    564.97175    1.3088654 
  278000     5.843615    564.97175    1.2559014 
  280000    5.7692723    564.97175    1.2645323 
  282000       5.4613    564.97175    1.2994239 
  284000    5.5160791    564.97175    1.2750049 
  286000    5.3369657    564.97175    1.2930292 
  288000    5.0745901    564.97175    1.3330573 
  290000    5.4746949    564.97175     1.261059 
  292000    5.2814486    564.97175    1.2770112 
  294000    5.3740123    564.97175    1.2631223 
  296000    5.1485755    564.97175    1.2934294 
  298000    5.2488036    564.97175    1.2683873 
  300000    5.0474514    564.97175    1.2879397 
  302000    5.1671412    564.97175    1.2710411 
  304000    4.9951684    564.97175    1.2981942 
  306000    5.4763448    564.97175    1.2040488 
  308000    4.8130657    564.97175    1.3097904 
  310000    5.0445898    564.97175    1.2790045 
  312000    5.4225824    564.97175    1.2236232 
  314000    5.0743675    564.97175    1.2628447 
  316000    5.2515305    564.97175    1.2542956 
  318000    5.2874302    564.97175    1.2428776 
  320000    5.2701468    564.97175    1.2399989 
  322000    5.5487134    564.97175    1.2219806 
  324000    5.0372689    564.97175    1.2837983 
  326000     5.577091    564.97175    1.2337495 
  328000     5.432634    564.97175    1.2584992 
  330000    5.0143623    564.97175    1.3297091 
  332000    5.6270388    564.97175    1.2581178 
  334000    5.4663666    564.97175    1.2832423 
  336000    5.2511881    564.97175    1.3030629 
  338000    5.5372437    564.97175    1.2795114 
  340000    5.6081279    564.97175     1.267617 
  342000    5.5326638    564.97175    1.2963931 
  344000    5.8249348    564.97175    1.2906295 
  346000    5.5122767    564.97175    1.3148364 
  348000    5.6369793    564.97175    1.3072401 
  350000    5.8356768    564.97175    1.2753142 
  352000    5.6213395    564.97175    1.3308615 
  354000    5.7340005    564.97175    1.3120383 
  356000     5.728027    564.97175    1.3114781 
  358000    5.5496484    564.97175     1.347552 
  360000    5.8798936    564.97175    1.2960283 
  362000    5.7124952    564.97175     1.323685 
  364000    5.4342479    564.97175    1.3715742 
  366000    5.6489558    564.97175    1.3574264 
  368000    5.9522265    564.97175    1.2935994 
  370000     5.992713    564.97175    1.2942032 
  372000     5.408534    564.97175    1.3548439 
  374000    5.3873879    564.97175    1.3779275 
  376000     5.730667    564.97175     1.311945 
  378000    5.4774787    564.97175    1.3493539 
  380000    5.7965456    564.97175    1.2956549 
  382000    5.7827677    564.97175    1.3009055 
  384000     5.723415    564.97175    1.3055851 
  386000    5.2934436    564.97175    1.3537127 
  388000    5.6267766    564.97175    1.3138618 
  390000    5.3362852    564.97175    1.3475147 
  392000    5.4367182    564.97175    1.3112674 
  394000    5.4270165    564.97175    1.3122986 
  396000    5.7571066    564.97175    1.2665024 
  398000    5.0525269    564.97175    1.3706565 
  400000    5.5292784    564.97175    1.2830239 
  402000     5.369117    564.97175    1.3027547 
  404000    5.1876197    564.97175    1.3075669 
  406000    5.0888298    564.97175    1.3331888 
  408000    5.3094051    564.97175     1.294479 
  410000    5.5243242    564.97175    1.2506473 
  412000    5.1923832    564.97175    1.3064677 
  414000    5.5214807    564.97175     1.248466 
  416000    5.1433669    564.97175    1.2996363 
  418000    5.0589423    564.97175    1.3072931 
  420000    5.0811103    564.97175    1.3105699 
  422000    5.5016954    564.97175    1.2328899 
  424000    5.0826191    564.97175    1.2930906 
  426000    5.1384981    564.97175    1.2816372 
  428000    5.1423274    564.97175    1.2947688 
  430000    5.3960235    564.97175    1.2577104 
  432000    5.4022582    564.97175    1.2491805 
  434000    5.2004372    564.97175    1.2895531 
  436000    5.2760897    564.97175    1.2675672 
  438000     5.505928    564.97175     1.258446 
  440000    5.2203493    564.97175    1.2948405 
  442000     5.169054    564.97175    1.3250955 
  444000     5.367901    564.97175    1.2943114 
  446000    5.5811405    564.97175    1.2566504 
  448000    5.7487095    564.97175    1.2423323 
  450000    5.4929098    564.97175    1.2734938 
  452000    5.4069775    564.97175     1.291384 
  454000    5.1442304    564.97175    1.3436387 
  456000    6.0213213    564.97175    1.2184707 
  458000    5.8883784    564.97175    1.2587086 
  460000    5.1729627    564.97175    1.3615459 
  462000    5.5824971    564.97175    1.3035534 
  464000    5.5715161    564.97175    1.3066721 
  466000    5.4194022    564.97175    1.3509562 
  468000    5.8684128    564.97175    1.2757304 
  470000    5.7067876    564.97175    1.3034528 
  472000    5.8178389    564.97175    1.2873317 
  474000    5.6651075    564.97175    1.3079679 
  476000    5.9575064    564.97175    1.2700179 
  478000       5.7265    564.97175    1.3044312 
  480000    5.4470039    564.97175    1.3590995 
  482000    5.2074108    564.97175    1.3862528 
  484000    5.5413217    564.97175    1.3384722 
  486000    5.2891339    564.97175    1.3777648 
  488000    5.6776888    564.97175    1.3182373 
  490000    5.7468908    564.97175    1.2905203 
  492000    5.5667799    564.97175    1.3278056 
  494000    5.8361913    564.97175    1.2969099 
  496000    5.5490106    564.97175    1.3316403 
  498000    5.6960909    564.97175    1.3067135 
  500000    5.4895695    564.97175    1.3305196 
Loop time of 173.994 on 1 procs for 500000 steps with 500 atoms

Performance: 1241420.249 tau/day, 2873.658 timesteps/s
97.2% CPU use with 1 MPI tasks x no OpenMP threads

MPI task timing breakdown:
Section |  min time  |  avg time  |  max time  |%varavg| %total
---------------------------------------------------------------
Pair    | 140.13     | 140.13     | 140.13     |   0.0 | 80.53
Neigh   | 23.467     | 23.467     | 23.467     |   0.0 | 13.49
Comm    | 5.3876     | 5.3876     | 5.3876     |   0.0 |  3.10
Output  | 0.026745   | 0.026745   | 0.026745   |   0.0 |  0.02
Modify  | 4.0013     | 4.0013     | 4.0013     |   0.0 |  2.30
Other   |            | 0.9859     |            |       |  0.57

Nlocal:    500 ave 500 max 500 min
Histogram: 1 0 0 0 0 0 0 0 0 0
Nghost:    1854 ave 1854 max 1854 min
Histogram: 1 0 0 0 0 0 0 0 0 0
Neighs:    19753 ave 19753 max 19753 min
Histogram: 1 0 0 0 0 0 0 0 0 0

Total # of neighbors = 19753
Ave neighs/atom = 39.506
Neighbor list builds = 25000
Dangerous builds not checked
Total wall time: 0:02:53
