LAMMPS (19 Oct 2016)
# equation of state for LJ

variable temp equal 1.3
variable rho  equal 0.78

units lj
atom_style atomic

lattice    fcc ${rho}
lattice    fcc 0.78
Lattice spacing in x,y,z = 1.72447 1.72447 1.72447
region box block 0 5 0 5 0 5
create_box 1 box
Created orthogonal box = (0 0 0) to (8.62234 8.62234 8.62234)
  1 by 1 by 1 MPI processor grid
create_atoms 1 box
Created 500 atoms
mass       1 1.0

pair_style lj/cut 2.5
pair_coeff 1 1 1.0 1.0 2.5

velocity   all create ${temp} 87287
velocity   all create 1.3 87287

neighbor   0.3 bin
neigh_modify every 20 delay 0 check no

fix        1 all nvt temp ${temp} ${temp} 100
fix        1 all nvt temp 1.3 ${temp} 100
fix        1 all nvt temp 1.3 1.3 100
dump       1 all custom 70000 dump_t${temp}_r${rho}.lammpstrj id type x y z
dump       1 all custom 70000 dump_t1.3_r${rho}.lammpstrj id type x y z
dump       1 all custom 70000 dump_t1.3_r0.78.lammpstrj id type x y z
thermo     2000
thermo_style  custom step press vol temp
thermo_modify flush yes

run 500000
Neighbor list info ...
  1 neighbor list requests
  update every 20 steps, delay 0 steps, check no
  max neighbors/atom: 2000, page size: 100000
  master list distance cutoff = 2.8
  ghost atom cutoff = 2.8
  binsize = 1.4 -> bins = 7 7 7
Memory usage per processor = 3.32306 Mbytes
Step Press Volume Temp 
       0   -5.1066541    641.02564          1.3 
    2000  0.023539946    641.02564   0.70612125 
    4000 -0.051197019    641.02564   0.72992594 
    6000   -0.1126972    641.02564   0.74161387 
    8000   0.06522257    641.02564   0.74328254 
   10000   0.26591158    641.02564   0.72778314 
   12000    0.1491256    641.02564   0.77240463 
   14000   0.25075762    641.02564   0.78350055 
   16000 -0.025827681    641.02564   0.80729297 
   18000   0.39142683    641.02564   0.78670606 
   20000   0.39600399    641.02564   0.81119003 
   22000   0.33372038    641.02564   0.84159049 
   24000   0.43335354    641.02564   0.83867461 
   26000   0.49165126    641.02564   0.84746959 
   28000    0.6104402    641.02564   0.86278615 
   30000   0.87418137    641.02564   0.87747933 
   32000    0.7034249    641.02564    0.9062928 
   34000   0.98627374    641.02564   0.89008784 
   36000    1.1619637    641.02564   0.87873915 
   38000   0.94599344    641.02564   0.94277097 
   40000    1.0168059    641.02564   0.95623507 
   42000    1.1999836    641.02564   0.95232191 
   44000    1.0612886    641.02564    1.0050926 
   46000    1.3484417    641.02564   0.99025657 
   48000    1.3288852    641.02564    1.0354829 
   50000    1.5703606    641.02564    1.0141221 
   52000    1.3339012    641.02564    1.0521425 
   54000    1.6229438    641.02564      1.04769 
   56000    1.7078639    641.02564    1.0738929 
   58000    1.5140289    641.02564    1.1255175 
   60000    1.5176142    641.02564    1.1574808 
   62000    1.7759863    641.02564    1.1485794 
   64000    2.1893536    641.02564    1.1148607 
   66000    2.1670772    641.02564    1.1160874 
   68000    2.0045306    641.02564    1.2100588 
   70000    2.5065949    641.02564    1.1387898 
   72000    2.3141809    641.02564    1.1822262 
   74000    2.3417505    641.02564    1.2017906 
   76000    2.1762537    641.02564    1.2590337 
   78000    2.1548718    641.02564    1.2772491 
   80000    2.3351457    641.02564    1.2796071 
   82000    2.4565944    641.02564    1.2743069 
   84000    2.4278103    641.02564    1.2895726 
   86000    2.3222287    641.02564    1.3443868 
   88000    2.6415668    641.02564    1.3013512 
   90000    2.9016404    641.02564    1.2813933 
   92000    2.6530503    641.02564    1.3403099 
   94000    3.0577944    641.02564    1.2849517 
   96000    2.7929731    641.02564    1.3459433 
   98000    2.7672064    641.02564    1.3364834 
  100000    2.8987859    641.02564    1.3584358 
  102000    2.7258291    641.02564    1.3799307 
  104000    3.0462042    641.02564    1.3282538 
  106000    2.9560172    641.02564    1.3615206 
  108000    3.1251918    641.02564    1.3533809 
  110000    3.0434193    641.02564    1.3701948 
  112000    2.5714991    641.02564    1.4425094 
  114000    2.9766755    641.02564    1.3628793 
  116000     2.875396    641.02564    1.3721447 
  118000    3.1155473    641.02564    1.3256963 
  120000     2.994612    641.02564    1.3675935 
  122000    2.8957064    641.02564    1.3367862 
  124000    2.8903547    641.02564     1.337092 
  126000    2.9161373    641.02564    1.3355794 
  128000    2.9206785    641.02564    1.3261483 
  130000    2.8999757    641.02564    1.3241479 
  132000    2.7954717    641.02564    1.3401523 
  134000    2.4746075    641.02564    1.3428758 
  136000    3.2283899    641.02564    1.2179711 
  138000    2.6449914    641.02564    1.3152954 
  140000     2.788315    641.02564    1.2581986 
  142000    2.7111629    641.02564     1.275708 
  144000     2.807762    641.02564     1.252808 
  146000    2.5335398    641.02564    1.2816822 
  148000    2.7861311    641.02564    1.2342528 
  150000    2.8750479    641.02564    1.2306119 
  152000    2.8280665    641.02564    1.1961398 
  154000    2.6888942    641.02564    1.2392658 
  156000     2.106158    641.02564    1.2919404 
  158000    2.3791724    641.02564    1.2412671 
  160000    2.0630702    641.02564    1.2923847 
  162000    2.2538194    641.02564    1.2710784 
  164000    2.4270575    641.02564    1.2480887 
  166000    2.5558794    641.02564     1.222569 
  168000    2.2721648    641.02564     1.266891 
  170000    2.4223275    641.02564    1.2374839 
  172000    2.2530985    641.02564    1.2524157 
  174000    2.5613591    641.02564    1.2404074 
  176000    2.4106606    641.02564    1.2715743 
  178000    2.6726574    641.02564    1.2208603 
  180000    2.5508802    641.02564     1.248078 
  182000    2.3220733    641.02564    1.2948465 
  184000    2.3275105    641.02564    1.2896577 
  186000    2.5625468    641.02564    1.2586311 
  188000    2.7666461    641.02564     1.251943 
  190000     2.543458    641.02564    1.2854528 
  192000    2.6310605    641.02564    1.2972159 
  194000    2.7443239    641.02564    1.2691804 
  196000    2.7513264    641.02564    1.2902491 
  198000    2.6961647    641.02564    1.3040222 
  200000    2.6847849    641.02564    1.3085421 
  202000    2.6160728    641.02564    1.3376103 
  204000    2.6623889    641.02564    1.3336457 
  206000    2.6198739    641.02564     1.351746 
  208000    3.0353775    641.02564    1.2973067 
  210000    2.9899488    641.02564    1.2901111 
  212000     2.978907    641.02564    1.3098505 
  214000    2.7860268    641.02564    1.3586103 
  216000    2.8142412    641.02564    1.3500587 
  218000    3.0964899    641.02564    1.3067584 
  220000    2.8826165    641.02564    1.3335188 
  222000    2.9818538    641.02564    1.3293881 
  224000    2.7399449    641.02564    1.3525028 
  226000    2.5258904    641.02564    1.3677238 
  228000    2.9512888    641.02564    1.3094481 
  230000    2.8173145    641.02564    1.3503065 
  232000    2.3436571    641.02564    1.4080561 
  234000     2.833682    641.02564     1.335749 
  236000    2.9473282    641.02564    1.3059863 
  238000    2.7387075    641.02564    1.3286727 
  240000    2.4431245    641.02564     1.379075 
  242000    2.5729954    641.02564    1.3416885 
  244000    2.8518349    641.02564     1.304458 
  246000    2.5837524    641.02564    1.3097805 
  248000    2.7183289    641.02564    1.2914247 
  250000    2.4819017    641.02564    1.3182643 
  252000     2.767429    641.02564    1.2714614 
  254000    2.5798588    641.02564    1.2952204 
  256000    2.4917358    641.02564    1.3193092 
  258000    2.7006234    641.02564    1.2486071 
  260000      2.47527    641.02564    1.2712494 
  262000     2.360729    641.02564    1.3112886 
  264000    2.6419887    641.02564    1.2575735 
  266000    2.2850626    641.02564    1.2934925 
  268000    2.5010502    641.02564    1.2994913 
  270000    2.4399854    641.02564    1.2790185 
  272000    2.6680002    641.02564    1.2522041 
  274000    2.6735724    641.02564    1.2318195 
  276000    2.6922973    641.02564    1.2527486 
  278000    2.7168246    641.02564    1.2390257 
  280000     2.443735    641.02564     1.280603 
  282000     2.944351    641.02564    1.2108774 
  284000    2.0060539    641.02564    1.3397395 
  286000    2.5449204    641.02564    1.2617203 
  288000    2.2775278    641.02564    1.3202782 
  290000    2.7928851    641.02564    1.2415669 
  292000    2.8624318    641.02564    1.2442632 
  294000    2.8524098    641.02564    1.2392839 
  296000    2.6561432    641.02564    1.2804685 
  298000    2.9268002    641.02564     1.239721 
  300000    2.6515639    641.02564    1.2994942 
  302000    2.9298145    641.02564    1.2609375 
  304000    2.6417769    641.02564    1.2927299 
  306000      2.83649    641.02564    1.2724904 
  308000    2.6298884    641.02564    1.3137106 
  310000    2.7907116    641.02564    1.2883063 
  312000    2.6045504    641.02564     1.314185 
  314000    2.6347608    641.02564    1.3302237 
  316000    2.8119681    641.02564    1.2908939 
  318000    2.7458282    641.02564    1.3247196 
  320000     2.385703    641.02564    1.3780011 
  322000    2.8608263    641.02564    1.3003764 
  324000    2.5670014    641.02564    1.3587741 
  326000    2.8655264    641.02564    1.3048906 
  328000    2.6565193    641.02564    1.3460426 
  330000    2.6097086    641.02564     1.347852 
  332000    2.7980162    641.02564    1.3310012 
  334000    2.6009959    641.02564    1.3632323 
  336000    2.8834435    641.02564    1.3030435 
  338000     2.597157    641.02564    1.3388694 
  340000    2.6693075    641.02564     1.321392 
  342000     2.649251    641.02564        1.346 
  344000     2.800321    641.02564    1.3120626 
  346000     2.841065    641.02564     1.311693 
  348000     2.914013    641.02564    1.2855982 
  350000     2.189306    641.02564    1.3845797 
  352000    2.5201474    641.02564    1.3321651 
  354000    2.6334525    641.02564    1.3161363 
  356000    2.5961253    641.02564     1.322083 
  358000    2.5835792    641.02564    1.3113805 
  360000    2.7859056    641.02564    1.2773771 
  362000    3.0407285    641.02564    1.2500817 
  364000    2.7350696    641.02564    1.2934013 
  366000    2.8573384    641.02564    1.2768103 
  368000    2.8493344    641.02564    1.2486608 
  370000    2.4879294    641.02564    1.2922853 
  372000    2.6274298    641.02564    1.2646119 
  374000    2.7491999    641.02564    1.2410398 
  376000    2.4848369    641.02564    1.2880446 
  378000    2.0826574    641.02564    1.3534248 
  380000    2.5424024    641.02564    1.2896321 
  382000    2.6629418    641.02564    1.2755193 
  384000     2.813328    641.02564     1.226329 
  386000    2.3903954    641.02564    1.2956969 
  388000    2.5150483    641.02564    1.2843871 
  390000    2.8590435    641.02564    1.2273508 
  392000     2.573489    641.02564    1.2934668 
  394000    2.5524367    641.02564    1.2844895 
  396000    2.4327905    641.02564    1.3184263 
  398000    2.7684592    641.02564     1.280667 
  400000     2.681438    641.02564    1.2982766 
  402000    2.8027007    641.02564     1.266647 
  404000    2.6803905    641.02564     1.294415 
  406000    2.4566899    641.02564     1.328538 
  408000    2.7936668    641.02564    1.2912681 
  410000    2.8939496    641.02564    1.2736522 
  412000    2.7132718    641.02564    1.3236667 
  414000    2.7683867    641.02564    1.3325273 
  416000     2.771161    641.02564    1.3117479 
  418000    2.7685281    641.02564    1.3104677 
  420000    2.8532823    641.02564    1.3312848 
  422000     3.026975    641.02564    1.2906491 
  424000    2.9798375    641.02564    1.2735844 
  426000      2.81547    641.02564    1.3194688 
  428000    2.6727855    641.02564    1.3241458 
  430000    2.5423818    641.02564    1.3586188 
  432000    2.8732593    641.02564    1.2767332 
  434000     2.552199    641.02564    1.3573439 
  436000    2.6454753    641.02564    1.3425572 
  438000    2.7813246    641.02564    1.2865352 
  440000     2.695059    641.02564    1.3217296 
  442000    2.4929945    641.02564    1.3468961 
  444000     2.458853    641.02564    1.3372496 
  446000    2.8423526    641.02564    1.2858906 
  448000    2.8951397    641.02564    1.2585669 
  450000    2.7816218    641.02564    1.2894515 
  452000    2.7563449    641.02564    1.2745803 
  454000    2.6927973    641.02564    1.3108453 
  456000    2.8251335    641.02564    1.2489699 
  458000     2.746853    641.02564    1.3058442 
  460000    2.5142293    641.02564    1.3138195 
  462000    2.8109315    641.02564    1.2988466 
  464000    2.7010226    641.02564    1.2998824 
  466000    2.8107533    641.02564    1.2629961 
  468000    2.5664153    641.02564    1.3151683 
  470000    2.4976619    641.02564    1.3205968 
  472000    2.5182564    641.02564    1.3390807 
  474000    2.5832225    641.02564    1.3477047 
  476000    2.8339237    641.02564    1.3015939 
  478000    2.7665971    641.02564    1.3230917 
  480000    2.8257591    641.02564    1.3326727 
  482000    2.6910079    641.02564    1.3636132 
  484000    2.7826714    641.02564      1.32118 
  486000    2.8523452    641.02564    1.3236198 
  488000    2.7056681    641.02564    1.3434327 
  490000    2.9434909    641.02564    1.3132085 
  492000    2.9692891    641.02564     1.342237 
  494000    2.6277546    641.02564    1.3793481 
  496000    2.7673775    641.02564    1.3402299 
  498000    3.0676021    641.02564    1.3031155 
  500000    2.7575762    641.02564    1.3404988 
Loop time of 152.281 on 1 procs for 500000 steps with 500 atoms

Performance: 1418429.572 tau/day, 3283.402 timesteps/s
97.5% CPU use with 1 MPI tasks x no OpenMP threads

MPI task timing breakdown:
Section |  min time  |  avg time  |  max time  |%varavg| %total
---------------------------------------------------------------
Pair    | 123.99     | 123.99     | 123.99     |   nan | 81.42
Neigh   | 18.402     | 18.402     | 18.402     |   0.0 | 12.08
Comm    | 5.0482     | 5.0482     | 5.0482     |   0.0 |  3.32
Output  | 0.017251   | 0.017251   | 0.017251   |   0.0 |  0.01
Modify  | 3.9252     | 3.9252     | 3.9252     |   0.0 |  2.58
Other   |            | 0.9029     |            |       |  0.59

Nlocal:    500 ave 500 max 500 min
Histogram: 1 0 0 0 0 0 0 0 0 0
Nghost:    1734 ave 1734 max 1734 min
Histogram: 1 0 0 0 0 0 0 0 0 0
Neighs:    17461 ave 17461 max 17461 min
Histogram: 1 0 0 0 0 0 0 0 0 0

Total # of neighbors = 17461
Ave neighs/atom = 34.922
Neighbor list builds = 25000
Dangerous builds not checked
Total wall time: 0:02:32
