LAMMPS (19 Oct 2016)
# equation of state for LJ

variable temp equal 1.3
variable rho  equal 0.53

units lj
atom_style atomic

lattice    fcc ${rho}
lattice    fcc 0.53
Lattice spacing in x,y,z = 1.96153 1.96153 1.96153
region box block 0 5 0 5 0 5
create_box 1 box
Created orthogonal box = (0 0 0) to (9.80764 9.80764 9.80764)
  1 by 1 by 1 MPI processor grid
create_atoms 1 box
Created 500 atoms
mass       1 1.0

pair_style lj/cut 2.5
pair_coeff 1 1 1.0 1.0 2.5

velocity   all create ${temp} 87287
velocity   all create 1.3 87287

neighbor   0.3 bin
neigh_modify every 20 delay 0 check no

fix        1 all nvt temp ${temp} ${temp} 100
fix        1 all nvt temp 1.3 ${temp} 100
fix        1 all nvt temp 1.3 1.3 100
dump       1 all custom 70000 dump_t${temp}_r${rho}.lammpstrj id type x y z
dump       1 all custom 70000 dump_t1.3_r${rho}.lammpstrj id type x y z
dump       1 all custom 70000 dump_t1.3_r0.53.lammpstrj id type x y z
thermo     2000
thermo_style  custom step press vol temp
thermo_modify flush yes

run 500000
Neighbor list info ...
  1 neighbor list requests
  update every 20 steps, delay 0 steps, check no
  max neighbors/atom: 2000, page size: 100000
  master list distance cutoff = 2.8
  ghost atom cutoff = 2.8
  binsize = 1.4 -> bins = 8 8 8
Memory usage per processor = 3.29189 Mbytes
Step Press Volume Temp 
       0   -2.3591478    943.39623          1.3 
    2000   0.42508972    943.39623     1.323617 
    4000     0.622581    943.39623     1.316835 
    6000   0.32514512    943.39623    1.3068227 
    8000   0.35489391    943.39623    1.2824009 
   10000    0.4488067    943.39623    1.2876696 
   12000   0.33765044    943.39623    1.2917984 
   14000   0.45686258    943.39623    1.2968221 
   16000   0.40571892    943.39623    1.2569832 
   18000   0.59469861    943.39623    1.2527349 
   20000   0.30690591    943.39623    1.3246549 
   22000   0.26223419    943.39623    1.2731805 
   24000   0.54554029    943.39623    1.2492752 
   26000   0.45205877    943.39623    1.2781831 
   28000   0.55162456    943.39623    1.2521805 
   30000   0.30948847    943.39623    1.2841995 
   32000    0.4238188    943.39623    1.2745424 
   34000    0.3076758    943.39623     1.285919 
   36000   0.60210871    943.39623    1.2856441 
   38000   0.39096616    943.39623    1.2766907 
   40000   0.53576812    943.39623    1.3235488 
   42000    0.5296018    943.39623     1.283903 
   44000   0.44539577    943.39623    1.3392002 
   46000   0.62952603    943.39623    1.3083611 
   48000   0.55003597    943.39623    1.3556419 
   50000   0.44570787    943.39623    1.3465262 
   52000   0.45336788    943.39623    1.3498536 
   54000   0.55940656    943.39623    1.3723185 
   56000   0.56324507    943.39623    1.3251513 
   58000   0.43752182    943.39623    1.3356999 
   60000   0.55898457    943.39623    1.3315791 
   62000   0.62195643    943.39623    1.3538178 
   64000   0.60109446    943.39623     1.306059 
   66000   0.52458556    943.39623     1.354576 
   68000   0.68563824    943.39623    1.2679717 
   70000   0.45935326    943.39623    1.3476038 
   72000   0.51062803    943.39623     1.289734 
   74000   0.41207536    943.39623    1.3480607 
   76000   0.47385873    943.39623    1.3052106 
   78000    0.4880773    943.39623    1.2871401 
   80000   0.48701849    943.39623    1.3043474 
   82000   0.45463763    943.39623    1.2769481 
   84000   0.55011691    943.39623    1.2928076 
   86000   0.27434864    943.39623    1.3164003 
   88000   0.41527723    943.39623    1.2721198 
   90000   0.36626764    943.39623    1.2830905 
   92000   0.62434417    943.39623    1.2402124 
   94000    0.5494838    943.39623    1.2757609 
   96000   0.45699225    943.39623    1.2727861 
   98000   0.37991514    943.39623    1.2867855 
  100000   0.57109325    943.39623    1.2435594 
  102000   0.31395515    943.39623      1.27047 
  104000   0.63691097    943.39623    1.2356967 
  106000   0.53748245    943.39623    1.2473324 
  108000   0.43828984    943.39623    1.2788484 
  110000   0.27277149    943.39623    1.3034731 
  112000   0.55772032    943.39623    1.2439255 
  114000    0.3255741    943.39623    1.3001539 
  116000   0.21251201    943.39623    1.2931993 
  118000   0.33286624    943.39623    1.2896813 
  120000   0.52515826    943.39623     1.310823 
  122000   0.59076604    943.39623    1.3096525 
  124000   0.61902537    943.39623    1.3105142 
  126000   0.43040767    943.39623    1.3369907 
  128000   0.57537802    943.39623    1.3474395 
  130000   0.44388676    943.39623     1.324484 
  132000   0.56363037    943.39623    1.3308695 
  134000   0.68948981    943.39623     1.332715 
  136000   0.62090537    943.39623    1.3410425 
  138000   0.44833092    943.39623    1.3500044 
  140000   0.46883386    943.39623    1.3164468 
  142000   0.36091689    943.39623     1.363262 
  144000   0.50044522    943.39623    1.3314771 
  146000   0.54226379    943.39623    1.3066609 
  148000   0.78615697    943.39623    1.2237167 
  150000   0.38663431    943.39623    1.3214344 
  152000   0.59797156    943.39623    1.2704998 
  154000   0.65430226    943.39623    1.2763382 
  156000   0.50082418    943.39623    1.3212949 
  158000   0.47851636    943.39623    1.2852659 
  160000   0.63341542    943.39623    1.2854519 
  162000   0.53932275    943.39623    1.3148092 
  164000   0.46386409    943.39623    1.2572069 
  166000   0.44293279    943.39623    1.2876115 
  168000   0.40770618    943.39623    1.2886033 
  170000   0.38520643    943.39623    1.3112278 
  172000   0.42769495    943.39623    1.2800859 
  174000   0.47037659    943.39623    1.2771876 
  176000   0.32280739    943.39623    1.2950761 
  178000   0.28183633    943.39623    1.3150487 
  180000   0.30525219    943.39623    1.3067642 
  182000   0.31935373    943.39623    1.3033926 
  184000   0.53889056    943.39623    1.2883439 
  186000   0.37318105    943.39623    1.2581211 
  188000   0.22802801    943.39623    1.2966526 
  190000   0.66322922    943.39623    1.2988678 
  192000   0.31574403    943.39623    1.3102381 
  194000   0.55877985    943.39623    1.2958141 
  196000    0.3077303    943.39623    1.3318777 
  198000   0.27691146    943.39623    1.3553262 
  200000   0.47992546    943.39623    1.3612041 
  202000   0.49420103    943.39623     1.331773 
  204000   0.32988136    943.39623    1.3529228 
  206000     0.417575    943.39623     1.370237 
  208000   0.55528147    943.39623     1.329478 
  210000   0.55155899    943.39623    1.3173948 
  212000   0.57178296    943.39623    1.3318165 
  214000   0.52057151    943.39623    1.3224336 
  216000   0.29636023    943.39623    1.3711938 
  218000   0.60177626    943.39623     1.305563 
  220000   0.64718291    943.39623    1.3130122 
  222000   0.61272725    943.39623    1.2857835 
  224000   0.51626706    943.39623    1.2892974 
  226000   0.51275981    943.39623    1.3285945 
  228000   0.59312466    943.39623    1.3007719 
  230000   0.46870352    943.39623    1.3204676 
  232000   0.27680811    943.39623    1.3043113 
  234000   0.67067317    943.39623    1.2810692 
  236000   0.39301056    943.39623    1.3102502 
  238000     0.509725    943.39623    1.2915239 
  240000   0.20043808    943.39623    1.2870643 
  242000   0.29834532    943.39623    1.2761838 
  244000   0.47109303    943.39623    1.2516524 
  246000   0.35919534    943.39623    1.2881463 
  248000   0.44987398    943.39623    1.2406877 
  250000   0.57591042    943.39623    1.2379235 
  252000   0.59939911    943.39623    1.2583967 
  254000   0.32890646    943.39623    1.2911482 
  256000    0.3707411    943.39623    1.2695592 
  258000   0.60110056    943.39623    1.2304745 
  260000   0.36077866    943.39623    1.2722659 
  262000   0.56519591    943.39623    1.2454038 
  264000   0.52542319    943.39623    1.3013196 
  266000   0.20147765    943.39623    1.3369617 
  268000   0.45944741    943.39623    1.2785699 
  270000   0.45190625    943.39623    1.3065157 
  272000    0.3914771    943.39623    1.3170513 
  274000   0.51248341    943.39623     1.354316 
  276000   0.65996942    943.39623    1.3111918 
  278000   0.55535412    943.39623    1.3131188 
  280000      0.59687    943.39623    1.3283235 
  282000   0.47935747    943.39623    1.3273023 
  284000   0.56550593    943.39623    1.3606345 
  286000   0.51442554    943.39623    1.3612265 
  288000    0.5003432    943.39623    1.3345038 
  290000   0.37424955    943.39623    1.3700399 
  292000   0.50420843    943.39623    1.3168084 
  294000   0.73048109    943.39623    1.3207034 
  296000   0.64401269    943.39623    1.3032378 
  298000   0.52016927    943.39623    1.3343814 
  300000   0.43462883    943.39623    1.3463255 
  302000   0.53989407    943.39623    1.3266701 
  304000   0.43565157    943.39623    1.3007897 
  306000   0.42831147    943.39623     1.302917 
  308000   0.44916522    943.39623    1.2839247 
  310000   0.35297423    943.39623    1.3183651 
  312000   0.48810165    943.39623    1.2922959 
  314000   0.56943725    943.39623    1.2910519 
  316000   0.33829132    943.39623    1.2838397 
  318000   0.41296367    943.39623    1.2650469 
  320000   0.67586159    943.39623    1.2259761 
  322000   0.38592642    943.39623    1.2251261 
  324000   0.16477595    943.39623    1.2745247 
  326000   0.18701705    943.39623    1.2904783 
  328000   0.53051691    943.39623     1.249697 
  330000   0.35883198    943.39623    1.2684973 
  332000   0.43396243    943.39623     1.260389 
  334000   0.47358541    943.39623    1.2195013 
  336000   0.36366762    943.39623    1.2567835 
  338000   0.64090808    943.39623    1.2423244 
  340000   0.49862962    943.39623    1.2476143 
  342000   0.65951172    943.39623    1.2437134 
  344000   0.39365199    943.39623    1.2691408 
  346000   0.41796187    943.39623     1.269702 
  348000   0.61343103    943.39623    1.2964398 
  350000   0.53060924    943.39623    1.3040827 
  352000   0.51825816    943.39623     1.331338 
  354000   0.61442194    943.39623    1.3101856 
  356000   0.36967501    943.39623    1.3285466 
  358000   0.50176208    943.39623    1.3450184 
  360000   0.48604307    943.39623    1.3047176 
  362000   0.60690629    943.39623    1.3204018 
  364000   0.44271793    943.39623    1.3347038 
  366000   0.53379689    943.39623    1.3303305 
  368000    0.4980187    943.39623    1.3135316 
  370000   0.37867185    943.39623    1.3268822 
  372000   0.46159771    943.39623    1.3134477 
  374000   0.35617979    943.39623    1.3550115 
  376000    0.4256572    943.39623    1.3130392 
  378000   0.37271433    943.39623    1.3064582 
  380000    0.7017458    943.39623    1.2826354 
  382000   0.43594368    943.39623    1.3320604 
  384000   0.42740095    943.39623    1.2811311 
  386000   0.60667314    943.39623    1.2983434 
  388000    0.3157452    943.39623    1.3217384 
  390000   0.36134722    943.39623    1.3100241 
  392000    0.5267449    943.39623    1.2859439 
  394000   0.52822582    943.39623    1.2479351 
  396000   0.33803927    943.39623    1.3037886 
  398000   0.43908997    943.39623    1.2542072 
  400000   0.46969367    943.39623    1.2877495 
  402000   0.40910683    943.39623    1.2854479 
  404000   0.62726484    943.39623    1.2156134 
  406000   0.47501274    943.39623     1.276054 
  408000   0.32157387    943.39623    1.2723072 
  410000   0.58959883    943.39623    1.2404478 
  412000   0.58401387    943.39623    1.2830565 
  414000   0.59450671    943.39623    1.2485068 
  416000   0.40384902    943.39623    1.3273581 
  418000   0.31306275    943.39623    1.2982998 
  420000   0.58377981    943.39623    1.3379618 
  422000   0.54644775    943.39623    1.3211519 
  424000   0.63141718    943.39623    1.3149066 
  426000   0.36740203    943.39623    1.3748787 
  428000   0.45981239    943.39623    1.3479433 
  430000   0.50501916    943.39623    1.3166597 
  432000   0.68580178    943.39623    1.3246051 
  434000   0.54732999    943.39623    1.3320286 
  436000    0.8001031    943.39623    1.2750608 
  438000   0.92384646    943.39623    1.3222378 
  440000   0.49519289    943.39623    1.3646872 
  442000   0.39308762    943.39623    1.3339951 
  444000   0.46178716    943.39623     1.358866 
  446000   0.61459927    943.39623    1.3064777 
  448000   0.57366056    943.39623    1.3334373 
  450000   0.65733285    943.39623    1.3113127 
  452000   0.35909818    943.39623    1.3059607 
  454000   0.37622354    943.39623    1.3268774 
  456000   0.49114859    943.39623    1.3381064 
  458000   0.30806595    943.39623    1.2982738 
  460000   0.57344598    943.39623    1.2899185 
  462000   0.43990692    943.39623    1.3172504 
  464000    0.4500527    943.39623    1.2806162 
  466000   0.27172305    943.39623    1.3056848 
  468000   0.42647824    943.39623    1.2661703 
  470000   0.44957678    943.39623    1.2761825 
  472000   0.52767431    943.39623    1.2611728 
  474000   0.40660733    943.39623    1.2452699 
  476000   0.37922265    943.39623    1.2905169 
  478000   0.31718327    943.39623    1.2918813 
  480000   0.49452359    943.39623     1.246461 
  482000   0.26411208    943.39623    1.2679695 
  484000   0.36241598    943.39623    1.2622371 
  486000   0.52876161    943.39623    1.2507398 
  488000   0.68790722    943.39623    1.2601339 
  490000   0.38435651    943.39623    1.2823279 
  492000   0.36214199    943.39623    1.3031702 
  494000   0.68719772    943.39623    1.2571525 
  496000   0.64368075    943.39623    1.2909679 
  498000   0.24968532    943.39623    1.3932521 
  500000   0.41121469    943.39623    1.3747142 
Loop time of 117.339 on 1 procs for 500000 steps with 500 atoms

Performance: 1840825.443 tau/day, 4261.170 timesteps/s
92.5% CPU use with 1 MPI tasks x no OpenMP threads

MPI task timing breakdown:
Section |  min time  |  avg time  |  max time  |%varavg| %total
---------------------------------------------------------------
Pair    | 92.219     | 92.219     | 92.219     |   0.0 | 78.59
Neigh   | 15.073     | 15.073     | 15.073     |   0.0 | 12.85
Comm    | 4.6832     | 4.6832     | 4.6832     |   0.0 |  3.99
Output  | 0.019022   | 0.019022   | 0.019022   |   0.0 |  0.02
Modify  | 4.4474     | 4.4474     | 4.4474     |   0.0 |  3.79
Other   |            | 0.897      |            |       |  0.76

Nlocal:    500 ave 500 max 500 min
Histogram: 1 0 0 0 0 0 0 0 0 0
Nghost:    1483 ave 1483 max 1483 min
Histogram: 1 0 0 0 0 0 0 0 0 0
Neighs:    12098 ave 12098 max 12098 min
Histogram: 1 0 0 0 0 0 0 0 0 0

Total # of neighbors = 12098
Ave neighs/atom = 24.196
Neighbor list builds = 25000
Dangerous builds not checked
Total wall time: 0:01:57
