LAMMPS (19 Oct 2016)
# equation of state for LJ

variable temp equal 1.3
variable rho  equal 0.79

units lj
atom_style atomic

lattice    fcc ${rho}
lattice    fcc 0.79
Lattice spacing in x,y,z = 1.71716 1.71716 1.71716
region box block 0 5 0 5 0 5
create_box 1 box
Created orthogonal box = (0 0 0) to (8.5858 8.5858 8.5858)
  1 by 1 by 1 MPI processor grid
create_atoms 1 box
Created 500 atoms
mass       1 1.0

pair_style lj/cut 2.5
pair_coeff 1 1 1.0 1.0 2.5

velocity   all create ${temp} 87287
velocity   all create 1.3 87287

neighbor   0.3 bin
neigh_modify every 20 delay 0 check no

fix        1 all nvt temp ${temp} ${temp} 100
fix        1 all nvt temp 1.3 ${temp} 100
fix        1 all nvt temp 1.3 1.3 100
dump       1 all custom 70000 dump_t${temp}_r${rho}.lammpstrj id type x y z
dump       1 all custom 70000 dump_t1.3_r${rho}.lammpstrj id type x y z
dump       1 all custom 70000 dump_t1.3_r0.79.lammpstrj id type x y z
thermo     2000
thermo_style  custom step press vol temp
thermo_modify flush yes

run 500000
Neighbor list info ...
  1 neighbor list requests
  update every 20 steps, delay 0 steps, check no
  max neighbors/atom: 2000, page size: 100000
  master list distance cutoff = 2.8
  ghost atom cutoff = 2.8
  binsize = 1.4 -> bins = 7 7 7
Memory usage per processor = 3.32306 Mbytes
Step Press Volume Temp 
       0   -5.1442583    632.91139          1.3 
    2000 -0.019241065    632.91139   0.70173816 
    4000 0.00012820459    632.91139    0.7016344 
    6000  -0.17245959    632.91139   0.74809468 
    8000 0.0058043886    632.91139   0.72548408 
   10000   0.25330028    632.91139   0.71439014 
   12000   0.26063251    632.91139      0.75181 
   14000   0.46595445    632.91139   0.71458517 
   16000   0.39228393    632.91139   0.75475965 
   18000   0.53455712    632.91139   0.74631874 
   20000   0.41527988    632.91139   0.77189873 
   22000   0.51220337    632.91139   0.78068447 
   24000   0.63163936    632.91139   0.80204765 
   26000   0.75892697    632.91139   0.81495538 
   28000   0.81806799    632.91139   0.80469879 
   30000    1.1930946    632.91139   0.79833771 
   32000   0.83633363    632.91139   0.85920118 
   34000   0.96562973    632.91139    0.8740141 
   36000   0.99074909    632.91139   0.89533057 
   38000    1.0256539    632.91139   0.91439713 
   40000    1.3699225    632.91139   0.88997014 
   42000    1.2456482    632.91139   0.95533872 
   44000    1.2974236    632.91139   0.96872292 
   46000    1.4184448    632.91139   0.97516627 
   48000    1.5796021    632.91139   0.99747086 
   50000    1.3757939    632.91139    1.0325544 
   52000    1.7118031    632.91139    1.0217092 
   54000    1.4162133    632.91139    1.0933009 
   56000     1.659646    632.91139    1.0864989 
   58000    1.9811755    632.91139    1.0404855 
   60000    1.9868297    632.91139    1.0877767 
   62000    2.0049958    632.91139    1.1198525 
   64000     2.000363    632.91139    1.1400668 
   66000    2.1154888    632.91139    1.1347796 
   68000    2.4316611    632.91139    1.1231131 
   70000    2.2999669    632.91139    1.1872223 
   72000    2.1869682    632.91139    1.2053705 
   74000    2.3295933    632.91139    1.2131644 
   76000    2.5061673    632.91139    1.2027122 
   78000    2.3530617    632.91139    1.2660117 
   80000    2.4644178    632.91139    1.2719939 
   82000    2.9293945    632.91139    1.2172592 
   84000    2.4138009    632.91139    1.3118119 
   86000    2.9530955    632.91139    1.2709037 
   88000    2.9519022    632.91139    1.2824252 
   90000    2.7350277    632.91139    1.3184238 
   92000    2.7515511    632.91139    1.3372007 
   94000    2.9680191    632.91139    1.3142958 
   96000    2.8483967    632.91139     1.361933 
   98000    2.9623282    632.91139    1.3718787 
  100000    3.0095136    632.91139    1.3293297 
  102000    3.1301756    632.91139    1.3417119 
  104000    2.9581653    632.91139    1.3775852 
  106000    3.1836916    632.91139    1.3595292 
  108000     2.987716    632.91139    1.3874898 
  110000     2.697413    632.91139     1.448978 
  112000    3.0779741    632.91139    1.4064475 
  114000    3.5146566    632.91139    1.3192783 
  116000    3.4282204    632.91139    1.3046389 
  118000    3.1813275    632.91139    1.3692235 
  120000    3.3237986    632.91139    1.3567705 
  122000    3.0784202    632.91139    1.3657007 
  124000    3.2092019    632.91139    1.3416879 
  126000    3.1390931    632.91139    1.3456587 
  128000    3.0679226    632.91139    1.3278739 
  130000    3.1191372    632.91139     1.314973 
  132000    2.8426278    632.91139    1.3569367 
  134000    3.0016532    632.91139    1.3190204 
  136000     3.283534    632.91139     1.268865 
  138000    3.1804054    632.91139    1.2693263 
  140000    3.2061198    632.91139    1.2551279 
  142000    2.8121885    632.91139    1.3141458 
  144000    2.6526869    632.91139    1.3096588 
  146000    2.8081291    632.91139    1.2821307 
  148000     2.858232    632.91139    1.2622619 
  150000     2.874827    632.91139    1.2647475 
  152000    2.7887088    632.91139    1.2682066 
  154000    2.7865102    632.91139     1.258059 
  156000    2.5028007    632.91139    1.2845055 
  158000    2.3276471    632.91139    1.2831153 
  160000    2.6005061    632.91139    1.2671954 
  162000    2.7356304    632.91139    1.2430487 
  164000    2.5339657    632.91139    1.2441168 
  166000    2.1371928    632.91139    1.2987777 
  168000    2.8766234    632.91139    1.1970083 
  170000    2.6009823    632.91139    1.2539989 
  172000    2.7730418    632.91139    1.2267506 
  174000    2.5928052    632.91139    1.2553918 
  176000    2.6418613    632.91139    1.2383385 
  178000    2.4114622    632.91139      1.30183 
  180000    2.6988168    632.91139    1.2420374 
  182000    2.1872818    632.91139    1.3213356 
  184000    2.8327192    632.91139    1.2458778 
  186000    2.8214608    632.91139    1.2407787 
  188000    2.7701533    632.91139    1.2629799 
  190000    2.8100063    632.91139    1.2764961 
  192000    2.8258151    632.91139    1.2787795 
  194000    2.9602205    632.91139    1.2805298 
  196000    2.7384658    632.91139    1.3219046 
  198000    2.8503726    632.91139    1.2990629 
  200000    2.9055813    632.91139    1.3068249 
  202000    2.8657745    632.91139      1.32817 
  204000    2.6926469    632.91139    1.3727046 
  206000    2.6660279    632.91139    1.3691499 
  208000      2.95288    632.91139    1.3331434 
  210000    3.1428709    632.91139    1.3031778 
  212000    2.9682896    632.91139    1.3371759 
  214000    3.0656878    632.91139    1.3280887 
  216000    2.7710467    632.91139    1.3540167 
  218000    2.9334892    632.91139      1.37337 
  220000    3.0151767    632.91139    1.3289626 
  222000    2.9956769    632.91139    1.3532876 
  224000    2.7860947    632.91139    1.3837778 
  226000    2.8167687    632.91139    1.3642159 
  228000    3.0455734    632.91139    1.3309637 
  230000     3.304018    632.91139    1.3217193 
  232000    2.8122645    632.91139    1.3593078 
  234000    2.9428703    632.91139    1.3521957 
  236000     2.904221    632.91139    1.3625804 
  238000    2.9176975    632.91139    1.3218916 
  240000    2.8073614    632.91139    1.3663833 
  242000    2.9745262    632.91139     1.329045 
  244000    2.9568295    632.91139    1.3158347 
  246000    2.7023957    632.91139    1.3515658 
  248000    3.0100497    632.91139    1.2969471 
  250000      2.69574    632.91139    1.3344004 
  252000     2.932764    632.91139    1.2777843 
  254000     2.634715    632.91139    1.3310086 
  256000    2.7370739    632.91139    1.3136734 
  258000    2.9343417    632.91139    1.2751435 
  260000    2.4393647    632.91139    1.3261626 
  262000     2.907778    632.91139     1.258877 
  264000    2.6497571    632.91139    1.2999037 
  266000    2.7820696    632.91139    1.2736858 
  268000    2.6489377    632.91139    1.2855693 
  270000    2.5325902    632.91139    1.3051036 
  272000    2.6980733    632.91139    1.2846148 
  274000    2.6782819    632.91139     1.281961 
  276000    2.4826629    632.91139    1.2958199 
  278000    2.7661106    632.91139     1.274474 
  280000    2.7585953    632.91139    1.2785971 
  282000    2.8806512    632.91139    1.2660164 
  284000    2.9156563    632.91139    1.2295082 
  286000    2.8473083    632.91139    1.2381641 
  288000    2.6612718    632.91139    1.2824754 
  290000    2.9318793    632.91139    1.2442572 
  292000    2.9386286    632.91139    1.2504192 
  294000    2.4359573    632.91139    1.3244344 
  296000    2.7927715    632.91139    1.2597239 
  298000    3.2280834    632.91139    1.2162023 
  300000    2.9176341    632.91139    1.2853663 
  302000    2.6791802    632.91139    1.2991325 
  304000    2.9290507    632.91139    1.2996265 
  306000    2.7808088    632.91139    1.3150659 
  308000    2.8339593    632.91139    1.2948672 
  310000    3.0215074    632.91139    1.2798321 
  312000     2.881919    632.91139    1.3117987 
  314000    3.2596114    632.91139    1.2589562 
  316000    2.8640222    632.91139    1.3160279 
  318000    3.0156984    632.91139    1.2963905 
  320000    3.1395511    632.91139     1.292201 
  322000    2.9324297    632.91139    1.3189853 
  324000    3.0897472    632.91139    1.3146388 
  326000    3.2864028    632.91139    1.2844946 
  328000    2.9332521    632.91139    1.3333952 
  330000    3.0304251    632.91139    1.3136371 
  332000    2.8131335    632.91139    1.3480447 
  334000    3.1077396    632.91139    1.3107833 
  336000    3.0940004    632.91139    1.3279427 
  338000    2.7268712    632.91139    1.3593197 
  340000    3.0609366    632.91139     1.309148 
  342000    3.1486189    632.91139    1.3047624 
  344000    3.1777927    632.91139    1.2775277 
  346000    3.1533882    632.91139    1.3088476 
  348000    2.7719782    632.91139    1.3578342 
  350000    2.8672722    632.91139    1.3328264 
  352000    2.9656842    632.91139    1.3132444 
  354000    3.0097302    632.91139    1.2982546 
  356000    2.9862732    632.91139    1.3116609 
  358000    2.6651944    632.91139    1.3314452 
  360000    2.9674955    632.91139    1.2801622 
  362000    2.6869679    632.91139     1.328998 
  364000    2.7943102    632.91139     1.305565 
  366000    2.6189416    632.91139    1.3349279 
  368000    2.7417772    632.91139    1.3208019 
  370000    2.9759883    632.91139    1.2464374 
  372000    2.6347846    632.91139    1.3065415 
  374000    2.8583012    632.91139    1.2635908 
  376000    2.9005049    632.91139     1.266945 
  378000    2.8003834    632.91139    1.2833844 
  380000    2.7497647    632.91139    1.2859671 
  382000    2.8762666    632.91139     1.265215 
  384000    2.6948405    632.91139    1.2880604 
  386000     2.879575    632.91139    1.2584714 
  388000    2.8117396    632.91139    1.2597718 
  390000    2.6368117    632.91139    1.2939107 
  392000    2.6416478    632.91139    1.2935923 
  394000    2.7228676    632.91139    1.2797202 
  396000    2.9092568    632.91139    1.2423633 
  398000    2.7012656    632.91139     1.283765 
  400000    3.1982373    632.91139    1.2268587 
  402000    2.7746124    632.91139    1.3047981 
  404000    2.6358199    632.91139    1.3343423 
  406000    2.9016241    632.91139    1.2708313 
  408000    2.3725076    632.91139    1.3827256 
  410000    2.9181448    632.91139    1.2959024 
  412000    2.7993283    632.91139    1.3103177 
  414000    2.8052715    632.91139    1.3135895 
  416000    3.0787074    632.91139    1.2960318 
  418000    2.5782741    632.91139    1.3771861 
  420000    2.8587155    632.91139    1.3183741 
  422000    2.7963496    632.91139    1.3407264 
  424000    2.7513614    632.91139    1.3422229 
  426000    3.0272141    632.91139    1.2926444 
  428000     2.943914    632.91139    1.3113321 
  430000    2.7884757    632.91139    1.3274064 
  432000    2.8517503    632.91139    1.3279073 
  434000    2.7800743    632.91139     1.343316 
  436000     2.744201    632.91139      1.35574 
  438000    2.8375303    632.91139    1.3303303 
  440000    2.6934116    632.91139     1.358387 
  442000    3.2800144    632.91139    1.2719127 
  444000    2.7223457    632.91139    1.3426007 
  446000    2.9990599    632.91139    1.3028552 
  448000    2.8574387    632.91139     1.316558 
  450000    2.7968811    632.91139    1.3230979 
  452000    3.3225252    632.91139    1.2523053 
  454000    2.9825785    632.91139    1.2964937 
  456000    3.0592878    632.91139    1.2838055 
  458000    3.2570233    632.91139    1.2530051 
  460000    2.9870447    632.91139    1.2881562 
  462000    2.8464251    632.91139    1.3061357 
  464000    2.7053402    632.91139    1.3197269 
  466000     2.729647    632.91139    1.3423726 
  468000    2.9148191    632.91139    1.3065573 
  470000    2.7161684    632.91139    1.3266852 
  472000    2.9042864    632.91139    1.3160133 
  474000    2.8077827    632.91139    1.3351969 
  476000     2.914892    632.91139    1.3094299 
  478000    2.9097961    632.91139    1.3315815 
  480000    2.9654683    632.91139    1.3178708 
  482000    3.0248893    632.91139     1.316195 
  484000    2.9096612    632.91139    1.3302009 
  486000    2.7823141    632.91139    1.3596721 
  488000    2.9267259    632.91139    1.3658055 
  490000    3.1543805    632.91139    1.3248212 
  492000    3.4987316    632.91139    1.2714086 
  494000    3.1574674    632.91139    1.3466377 
  496000    3.0562654    632.91139    1.3690979 
  498000    3.2393646    632.91139    1.3313586 
  500000    3.1681253    632.91139    1.3393514 
Loop time of 156.516 on 1 procs for 500000 steps with 500 atoms

Performance: 1380048.361 tau/day, 3194.556 timesteps/s
97.2% CPU use with 1 MPI tasks x no OpenMP threads

MPI task timing breakdown:
Section |  min time  |  avg time  |  max time  |%varavg| %total
---------------------------------------------------------------
Pair    | 128        | 128        | 128        |   0.0 | 81.78
Neigh   | 18.514     | 18.514     | 18.514     |   0.0 | 11.83
Comm    | 5.1135     | 5.1135     | 5.1135     |   0.0 |  3.27
Output  | 0.021814   | 0.021814   | 0.021814   |   0.0 |  0.01
Modify  | 3.9449     | 3.9449     | 3.9449     |   0.0 |  2.52
Other   |            | 0.923      |            |       |  0.59

Nlocal:    500 ave 500 max 500 min
Histogram: 1 0 0 0 0 0 0 0 0 0
Nghost:    1783 ave 1783 max 1783 min
Histogram: 1 0 0 0 0 0 0 0 0 0
Neighs:    17762 ave 17762 max 17762 min
Histogram: 1 0 0 0 0 0 0 0 0 0

Total # of neighbors = 17762
Ave neighs/atom = 35.524
Neighbor list builds = 25000
Dangerous builds not checked
Total wall time: 0:02:36
