LAMMPS (19 Oct 2016)
# equation of state for LJ

variable temp equal 1.3
variable rho  equal 0.903

units lj
atom_style atomic

lattice    fcc ${rho}
lattice    fcc 0.903
Lattice spacing in x,y,z = 1.64232 1.64232 1.64232
region box block 0 5 0 5 0 5
create_box 1 box
Created orthogonal box = (0 0 0) to (8.21159 8.21159 8.21159)
  1 by 1 by 1 MPI processor grid
create_atoms 1 box
Created 500 atoms
mass       1 1.0

pair_style lj/cut 2.5
pair_coeff 1 1 1.0 1.0 2.5

velocity   all create ${temp} 87287
velocity   all create 1.3 87287

neighbor   0.3 bin
neigh_modify every 20 delay 0 check no

fix        1 all nvt temp ${temp} ${temp} 100
fix        1 all nvt temp 1.3 ${temp} 100
fix        1 all nvt temp 1.3 1.3 100
dump       1 all custom 70000 dump_t${temp}_r${rho}.lammpstrj id type x y z
dump       1 all custom 70000 dump_t1.3_r${rho}.lammpstrj id type x y z
dump       1 all custom 70000 dump_t1.3_r0.903.lammpstrj id type x y z
thermo     2000
thermo_style  custom step press vol temp
thermo_modify flush yes

run 500000
Neighbor list info ...
  1 neighbor list requests
  update every 20 steps, delay 0 steps, check no
  max neighbors/atom: 2000, page size: 100000
  master list distance cutoff = 2.8
  ghost atom cutoff = 2.8
  binsize = 1.4 -> bins = 6 6 6
Memory usage per processor = 3.32155 Mbytes
Step Press Volume Temp 
       0   -4.6244236    553.70986          1.3 
    2000  -0.11254675    553.70986   0.68741449 
    4000  -0.10731644    553.70986   0.69723351 
    6000   0.18468905    553.70986   0.66791463 
    8000 0.0087472083    553.70986   0.71611925 
   10000   0.05909373    553.70986   0.72589567 
   12000   0.18364756    553.70986   0.73148116 
   14000   0.35817568    553.70986   0.72170523 
   16000   0.34655503    553.70986   0.73598082 
   18000   0.42417769    553.70986   0.75453337 
   20000  0.095649556    553.70986   0.81346496 
   22000   0.39248749    553.70986    0.7981803 
   24000   0.46536113    553.70986   0.81082969 
   26000   0.94011187    553.70986   0.76599678 
   28000   0.94248589    553.70986    0.7939013 
   30000   0.90430627    553.70986   0.82414767 
   32000   0.89986009    553.70986    0.8504789 
   34000   0.89118243    553.70986    0.8819531 
   36000    1.0041514    553.70986   0.89458392 
   38000    1.0965355    553.70986   0.90740853 
   40000    1.4229745    553.70986   0.87284252 
   42000    1.4611454    553.70986   0.91205378 
   44000    1.6084482    553.70986   0.92389908 
   46000    1.3876316    553.70986   0.97143788 
   48000    1.6346427    553.70986   0.97513693 
   50000    2.0989309    553.70986   0.93510483 
   52000    1.6764673    553.70986    1.0250283 
   54000    2.0503621    553.70986    1.0036944 
   56000    2.4197784    553.70986   0.97625864 
   58000    2.8643375    553.70986   0.95317703 
   60000    3.3334119    553.70986   0.90621705 
   62000    3.6187028    553.70986   0.90917285 
   64000    3.6889606    553.70986   0.92323197 
   66000    3.8913315    553.70986   0.92470615 
   68000    3.8018593    553.70986   0.96456156 
   70000    4.2695501    553.70986   0.92999573 
   72000    4.1134815    553.70986   0.99023503 
   74000    4.0936552    553.70986    1.0088566 
   76000    4.3978226    553.70986    1.0024191 
   78000     4.562301    553.70986    1.0089149 
   80000    4.7724398    553.70986    1.0306688 
   82000    4.6609421    553.70986     1.064555 
   84000    4.7408896    553.70986    1.0872102 
   86000    4.8786986    553.70986    1.0860421 
   88000    5.1916113    553.70986    1.0785856 
   90000    4.9698474    553.70986    1.1472182 
   92000    5.1994519    553.70986    1.1259392 
   94000      5.38659    553.70986     1.138025 
   96000    5.2050703    553.70986    1.1942557 
   98000     5.445449    553.70986    1.1831027 
  100000    5.7178204    553.70986    1.1818266 
  102000     5.557341    553.70986    1.2344159 
  104000    5.8757055    553.70986    1.1942402 
  106000    6.0170179    553.70986    1.2062387 
  108000    6.0398151    553.70986    1.2369752 
  110000    6.1786664    553.70986    1.2338393 
  112000    6.0812174    553.70986    1.2738291 
  114000    6.0531343    553.70986    1.3143886 
  116000    6.4921509    553.70986    1.2581211 
  118000    6.2501474    553.70986    1.3098537 
  120000    6.1379899    553.70986    1.3482741 
  122000    6.4322274    553.70986    1.3143354 
  124000    6.8573328    553.70986    1.2581109 
  126000    6.3379923    553.70986    1.3579012 
  128000    6.2264346    553.70986    1.3868626 
  130000     6.537372    553.70986    1.3461904 
  132000    6.7896423    553.70986     1.333712 
  134000    6.5819633    553.70986    1.3680544 
  136000    6.6410104    553.70986    1.3688349 
  138000    6.6873119    553.70986    1.3606386 
  140000    6.6250504    553.70986    1.3859305 
  142000     7.064001    553.70986    1.3181433 
  144000    6.4421926    553.70986    1.4040939 
  146000    6.7027088    553.70986     1.349658 
  148000    6.4530187    553.70986    1.4009678 
  150000    6.8856211    553.70986    1.3346001 
  152000    6.4587126    553.70986     1.383103 
  154000    6.4639914    553.70986    1.3682037 
  156000     6.555069    553.70986    1.3550659 
  158000    6.5415859    553.70986    1.3302514 
  160000    6.3478852    553.70986    1.3470707 
  162000    6.4448573    553.70986    1.3235403 
  164000    5.9476219    553.70986    1.3871544 
  166000    6.3562287    553.70986    1.3041144 
  168000    5.6447094    553.70986    1.3990847 
  170000    6.4046982    553.70986    1.2655898 
  172000    6.3102054    553.70986    1.2772097 
  174000    6.0622866    553.70986    1.2901319 
  176000    5.7575942    553.70986    1.3289589 
  178000    6.1389203    553.70986    1.2529267 
  180000    5.9967631    553.70986    1.2619744 
  182000    5.6986181    553.70986    1.3047676 
  184000    5.9881868    553.70986    1.2514831 
  186000     5.658445    553.70986    1.2734293 
  188000    5.8032585    553.70986    1.2464109 
  190000    5.5109932    553.70986    1.2867212 
  192000    5.7758469    553.70986    1.2352782 
  194000    5.8132552    553.70986    1.2358369 
  196000       5.7295    553.70986     1.245822 
  198000    5.5183056    553.70986    1.2728332 
  200000     5.754088    553.70986    1.2358796 
  202000    5.8109369    553.70986     1.238024 
  204000    5.8996666    553.70986    1.2200662 
  206000    5.8154572    553.70986    1.2391808 
  208000    5.6740009    553.70986    1.2651017 
  210000    5.8117665    553.70986     1.244104 
  212000    5.9484292    553.70986    1.2442719 
  214000     5.604416    553.70986    1.2909399 
  216000     5.783971    553.70986    1.2852076 
  218000    6.0669854    553.70986     1.242098 
  220000    5.6864265    553.70986    1.3031973 
  222000    6.0301442    553.70986    1.2740697 
  224000    5.8744566    553.70986    1.2926573 
  226000    5.9454313    553.70986     1.306648 
  228000    6.2824393    553.70986    1.2621287 
  230000    6.0126513    553.70986    1.3298588 
  232000    6.3138348    553.70986    1.2775811 
  234000    6.0283132    553.70986    1.3219307 
  236000    5.8867235    553.70986    1.3638762 
  238000    6.5326554    553.70986    1.2767226 
  240000    6.7580993    553.70986    1.2634697 
  242000    6.3820626    553.70986    1.3116204 
  244000    6.2769481    553.70986    1.3537619 
  246000    6.4404244    553.70986    1.3093169 
  248000    6.5367135    553.70986    1.3296175 
  250000    6.0321953    553.70986    1.4116271 
  252000     6.763336    553.70986    1.2892642 
  254000    6.0961506    553.70986    1.3841129 
  256000    6.2132113    553.70986    1.3876924 
  258000    6.8025211    553.70986    1.2963679 
  260000    6.3419551    553.70986    1.3572813 
  262000    6.5084732    553.70986    1.3321584 
  264000    6.0546758    553.70986    1.3961468 
  266000    6.4814124    553.70986    1.3428284 
  268000     6.647581    553.70986    1.3026593 
  270000    6.2607266    553.70986    1.3421948 
  272000    6.2631711    553.70986    1.3392282 
  274000    6.2216044    553.70986     1.345184 
  276000    6.4736484    553.70986    1.2940955 
  278000    6.1969288    553.70986    1.3459716 
  280000     6.186659    553.70986    1.3321257 
  282000    6.0555738    553.70986    1.3579235 
  284000    6.3586891    553.70986    1.2722084 
  286000    6.1482622    553.70986    1.3191779 
  288000    6.1502392    553.70986    1.3107775 
  290000    6.3422923    553.70986    1.2704748 
  292000    6.2327407    553.70986    1.2765353 
  294000    6.0906486    553.70986      1.28224 
  296000    6.1265251    553.70986    1.2771304 
  298000    6.0720674    553.70986    1.2744552 
  300000    6.2449549    553.70986    1.2451869 
  302000    6.0913141    553.70986    1.2545123 
  304000    6.2739498    553.70986    1.2214263 
  306000    6.0949398    553.70986    1.2417642 
  308000    5.8974756    553.70986    1.2664631 
  310000    6.0286142    553.70986    1.2337234 
  312000    6.0694775    553.70986    1.2447668 
  314000    6.0809334    553.70986    1.2431364 
  316000    5.8278062    553.70986    1.2702783 
  318000     5.745267    553.70986    1.2861496 
  320000    5.9190371    553.70986    1.2532136 
  322000    5.6610937    553.70986    1.3011433 
  324000    5.7548986    553.70986    1.2816717 
  326000     5.822297    553.70986    1.2781538 
  328000    5.7532574    553.70986    1.2886547 
  330000    6.3106905    553.70986     1.198276 
  332000    6.1399798    553.70986    1.2448972 
  334000    6.0303118    553.70986    1.2710588 
  336000    5.8037529    553.70986    1.2994649 
  338000    6.0779687    553.70986    1.2734089 
  340000    6.1637176    553.70986    1.2807275 
  342000    5.7971259    553.70986    1.3476227 
  344000    6.0972246    553.70986    1.3073259 
  346000    6.0221865    553.70986    1.3040896 
  348000    5.8166036    553.70986    1.3630405 
  350000    6.1550091    553.70986    1.3063707 
  352000    6.3769745    553.70986      1.27739 
  354000    6.2429092    553.70986    1.3024074 
  356000    5.9380029    553.70986    1.3679252 
  358000    6.0861544    553.70986    1.3461646 
  360000     6.279974    553.70986    1.3420369 
  362000    5.9109613    553.70986    1.3820748 
  364000    6.1870258    553.70986    1.3504005 
  366000    6.8412624    553.70986     1.260036 
  368000    6.7090363    553.70986     1.294475 
  370000    6.5467597    553.70986    1.3110934 
  372000    6.0395788    553.70986    1.3883562 
  374000    6.5924089    553.70986    1.2938777 
  376000    6.4846719    553.70986     1.321122 
  378000     6.293185    553.70986     1.341415 
  380000    6.3188264    553.70986    1.3361662 
  382000    6.1478631    553.70986    1.3573005 
  384000    6.3828174    553.70986    1.3149599 
  386000    6.4353602    553.70986    1.3248522 
  388000    6.0616701    553.70986    1.3509505 
  390000    6.6488131    553.70986    1.2662488 
  392000    6.2480937    553.70986    1.3489555 
  394000    6.0786337    553.70986    1.3369589 
  396000    6.2304034    553.70986    1.3226013 
  398000    6.1969085    553.70986    1.3059159 
  400000    6.0414573    553.70986     1.338537 
  402000    6.2087879    553.70986    1.3061076 
  404000    6.1621464    553.70986     1.293384 
  406000    6.0655053    553.70986     1.307054 
  408000     6.329731    553.70986    1.2529007 
  410000    6.0991823    553.70986    1.2784481 
  412000    6.1372537    553.70986    1.2904519 
  414000    6.2370222    553.70986    1.2708017 
  416000    6.1297166    553.70986    1.2743465 
  418000    5.8831091    553.70986    1.3024841 
  420000    5.9282234    553.70986    1.2859309 
  422000    6.0499421    553.70986     1.271719 
  424000    6.0303761    553.70986    1.2832069 
  426000    5.9206034    553.70986    1.2814342 
  428000    5.8763713    553.70986    1.2810632 
  430000    6.0889922    553.70986    1.2334366 
  432000    5.7049274    553.70986    1.2931121 
  434000    5.7118609    553.70986    1.3012518 
  436000    5.8585433    553.70986    1.2889876 
  438000    5.9634268    553.70986     1.255208 
  440000    5.9381403    553.70986    1.2722599 
  442000    5.9363047    553.70986    1.2723779 
  444000    6.1501454    553.70986    1.2424082 
  446000    6.1354595    553.70986    1.2498824 
  448000    6.2466935    553.70986    1.2313618 
  450000    6.1535529    553.70986    1.2761019 
  452000    6.1262546    553.70986    1.2722324 
  454000    5.9679357    553.70986     1.293895 
  456000    6.1506386    553.70986    1.2770862 
  458000    5.9595452    553.70986    1.3235015 
  460000    6.5475078    553.70986    1.2334801 
  462000    6.4974314    553.70986    1.2655931 
  464000    6.2734852    553.70986    1.2890738 
  466000    6.1998174    553.70986    1.3070242 
  468000    6.3357428    553.70986    1.2886899 
  470000    6.1474473    553.70986    1.3174053 
  472000    6.1382456    553.70986    1.3138287 
  474000    6.2318657    553.70986    1.3192921 
  476000    6.2780867    553.70986    1.3235351 
  478000    6.3737543    553.70986    1.2979073 
  480000    6.2097498    553.70986    1.3421123 
  482000    6.1562283    553.70986    1.3458609 
  484000    6.4718397    553.70986    1.3215865 
  486000    6.3108239    553.70986    1.3157424 
  488000    6.1045571    553.70986    1.3401912 
  490000    6.3816043    553.70986    1.2998037 
  492000    6.3834832    553.70986    1.3215781 
  494000    6.0976735    553.70986    1.3594955 
  496000    6.2181126    553.70986    1.3441521 
  498000    6.4886341    553.70986    1.2929096 
  500000    6.5299159    553.70986    1.2824513 
Loop time of 176.05 on 1 procs for 500000 steps with 500 atoms

Performance: 1226926.350 tau/day, 2840.107 timesteps/s
97.5% CPU use with 1 MPI tasks x no OpenMP threads

MPI task timing breakdown:
Section |  min time  |  avg time  |  max time  |%varavg| %total
---------------------------------------------------------------
Pair    | 143.02     | 143.02     | 143.02     |   0.0 | 81.24
Neigh   | 22.665     | 22.665     | 22.665     |   nan | 12.87
Comm    | 5.3658     | 5.3658     | 5.3658     |   0.0 |  3.05
Output  | 0.022304   | 0.022304   | 0.022304   |   0.0 |  0.01
Modify  | 4.0064     | 4.0064     | 4.0064     |   0.0 |  2.28
Other   |            | 0.9756     |            |       |  0.55

Nlocal:    500 ave 500 max 500 min
Histogram: 1 0 0 0 0 0 0 0 0 0
Nghost:    1901 ave 1901 max 1901 min
Histogram: 1 0 0 0 0 0 0 0 0 0
Neighs:    20165 ave 20165 max 20165 min
Histogram: 1 0 0 0 0 0 0 0 0 0

Total # of neighbors = 20165
Ave neighs/atom = 40.33
Neighbor list builds = 25000
Dangerous builds not checked
Total wall time: 0:02:56
