LAMMPS (19 Oct 2016)
# equation of state for LJ

variable temp equal 1.3
variable rho  equal 0.82

units lj
atom_style atomic

lattice    fcc ${rho}
lattice    fcc 0.82
Lattice spacing in x,y,z = 1.69596 1.69596 1.69596
region box block 0 5 0 5 0 5
create_box 1 box
Created orthogonal box = (0 0 0) to (8.4798 8.4798 8.4798)
  1 by 1 by 1 MPI processor grid
create_atoms 1 box
Created 500 atoms
mass       1 1.0

pair_style lj/cut 2.5
pair_coeff 1 1 1.0 1.0 2.5

velocity   all create ${temp} 87287
velocity   all create 1.3 87287

neighbor   0.3 bin
neigh_modify every 20 delay 0 check no

fix        1 all nvt temp ${temp} ${temp} 100
fix        1 all nvt temp 1.3 ${temp} 100
fix        1 all nvt temp 1.3 1.3 100
dump       1 all custom 70000 dump_t${temp}_r${rho}.lammpstrj id type x y z
dump       1 all custom 70000 dump_t1.3_r${rho}.lammpstrj id type x y z
dump       1 all custom 70000 dump_t1.3_r0.82.lammpstrj id type x y z
thermo     2000
thermo_style  custom step press vol temp
thermo_modify flush yes

run 500000
Neighbor list info ...
  1 neighbor list requests
  update every 20 steps, delay 0 steps, check no
  max neighbors/atom: 2000, page size: 100000
  master list distance cutoff = 2.8
  ghost atom cutoff = 2.8
  binsize = 1.4 -> bins = 7 7 7
Memory usage per processor = 3.32306 Mbytes
Step Press Volume Temp 
       0   -5.1891357     609.7561          1.3 
    2000   0.15803102     609.7561   0.64017164 
    4000  -0.11916786     609.7561   0.68673455 
    6000   0.10301853     609.7561   0.68230094 
    8000   0.20824303     609.7561   0.68506954 
   10000  0.026737815     609.7561   0.71045416 
   12000   0.43972473     609.7561   0.68530569 
   14000   0.34333935     609.7561   0.70825435 
   16000   0.51542731     609.7561   0.69448839 
   18000   0.55239258     609.7561   0.71004863 
   20000   0.43053944     609.7561   0.75345919 
   22000   0.79179569     609.7561    0.7385329 
   24000   0.67186926     609.7561   0.74870206 
   26000    1.0368198     609.7561   0.72388764 
   28000   0.87367336     609.7561    0.7873275 
   30000   0.82604856     609.7561   0.81309627 
   32000   0.85991997     609.7561   0.83306295 
   34000    1.2094577     609.7561   0.81129852 
   36000    1.1139856     609.7561   0.84767605 
   38000    1.2328448     609.7561   0.86762791 
   40000    1.4709346     609.7561    0.8566906 
   42000    1.2493574     609.7561   0.93319683 
   44000    1.4271716     609.7561   0.91428472 
   46000    1.5346803     609.7561   0.93661598 
   48000    1.7546408     609.7561    0.9104754 
   50000    1.7515999     609.7561   0.96162003 
   52000    1.7265261     609.7561   0.99517188 
   54000    1.8778334     609.7561   0.98572187 
   56000    2.1363718     609.7561   0.98638687 
   58000    2.1994538     609.7561    1.0045335 
   60000    2.2221184     609.7561    1.0502549 
   62000    2.3416163     609.7561    1.0570806 
   64000    2.4766993     609.7561      1.05081 
   66000    2.7294537     609.7561    1.0544912 
   68000    2.4183745     609.7561    1.1253363 
   70000    2.7079816     609.7561    1.1083103 
   72000     2.904541     609.7561    1.1139838 
   74000    2.7052179     609.7561    1.1638549 
   76000    2.9815342     609.7561    1.1586979 
   78000    2.7362116     609.7561    1.2195385 
   80000    3.1127433     609.7561    1.1962126 
   82000    3.1022901     609.7561    1.2187671 
   84000     3.010497     609.7561    1.2563621 
   86000    3.2190377     609.7561    1.2370151 
   88000    3.6837667     609.7561    1.2095061 
   90000    3.2877066     609.7561    1.2871744 
   92000    3.2884746     609.7561      1.32032 
   94000    3.3418451     609.7561    1.3189681 
   96000    3.6875795     609.7561    1.2955911 
   98000    3.9760431     609.7561    1.2701685 
  100000    3.8641756     609.7561     1.293869 
  102000    3.8248963     609.7561    1.3017731 
  104000    3.9702557     609.7561    1.3005127 
  106000    3.6586396     609.7561    1.3680553 
  108000    3.4465543     609.7561    1.4172424 
  110000    3.7532817     609.7561    1.3676343 
  112000    3.8276411     609.7561    1.3609982 
  114000    3.8890571     609.7561    1.3852467 
  116000    3.8785592     609.7561    1.3883664 
  118000    3.9195084     609.7561    1.3571847 
  120000    4.0352484     609.7561    1.3624643 
  122000    3.5625161     609.7561    1.4287307 
  124000    3.9099097     609.7561    1.3674008 
  126000    3.8044697     609.7561    1.3844281 
  128000    3.6249796     609.7561    1.4129152 
  130000    3.8906238     609.7561    1.3680758 
  132000    4.1835405     609.7561    1.3195702 
  134000    3.7701694     609.7561    1.3600319 
  136000    3.8070979     609.7561     1.360899 
  138000     3.781255     609.7561    1.3347519 
  140000    3.8824846     609.7561    1.3120938 
  142000     3.689781     609.7561    1.3145516 
  144000    3.5157403     609.7561    1.3279936 
  146000    3.7196341     609.7561    1.2752544 
  148000    3.3845352     609.7561     1.323767 
  150000      3.32955     609.7561    1.3139038 
  152000    3.1191008     609.7561    1.3318738 
  154000    3.4670321     609.7561    1.2722743 
  156000    3.5256483     609.7561     1.251334 
  158000    3.1527553     609.7561    1.2952752 
  160000    3.1093412     609.7561    1.2718292 
  162000    3.2716604     609.7561    1.2672259 
  164000    3.1662915     609.7561    1.2739372 
  166000    3.4714057     609.7561     1.210938 
  168000     3.145785     609.7561     1.266238 
  170000    3.1293562     609.7561    1.2467406 
  172000    3.3962071     609.7561    1.1900505 
  174000     3.228586     609.7561    1.2411411 
  176000    3.0312242     609.7561    1.2805626 
  178000    3.2610337     609.7561     1.241196 
  180000    3.0864637     609.7561    1.2588882 
  182000    3.1098492     609.7561    1.2740243 
  184000    3.2786468     609.7561    1.2563491 
  186000    3.4236032     609.7561    1.2237892 
  188000    3.4029648     609.7561    1.2422094 
  190000    3.2249792     609.7561    1.2604193 
  192000     3.079384     609.7561    1.2924268 
  194000    3.4017619     609.7561    1.2639494 
  196000    3.3411322     609.7561    1.2816275 
  198000    3.3589052     609.7561    1.2923006 
  200000    3.2754298     609.7561    1.3054769 
  202000    3.4454456     609.7561    1.3028802 
  204000    3.3113947     609.7561    1.3168246 
  206000    3.9194964     609.7561     1.241022 
  208000    3.3739139     609.7561    1.3281665 
  210000     3.750208     609.7561     1.318178 
  212000    3.5917417     609.7561    1.3305197 
  214000    3.6805885     609.7561    1.3131664 
  216000    3.8427769     609.7561    1.2958514 
  218000    3.6082499     609.7561    1.3461357 
  220000    3.6915413     609.7561    1.3606568 
  222000    3.4152175     609.7561     1.374375 
  224000    3.8310609     609.7561    1.3269069 
  226000     4.027464     609.7561    1.3004717 
  228000    3.7199293     609.7561    1.3236211 
  230000    3.6983641     609.7561    1.3299263 
  232000    3.8105914     609.7561    1.3294448 
  234000    3.6923305     609.7561    1.3491913 
  236000    3.6211866     609.7561     1.351029 
  238000    3.5739661     609.7561    1.3543225 
  240000    3.7259626     609.7561    1.3363462 
  242000    3.4108875     609.7561    1.3774517 
  244000    3.7983472     609.7561     1.326447 
  246000     4.027822     609.7561    1.2672237 
  248000    3.5516108     609.7561    1.3374368 
  250000    3.6498736     609.7561    1.3177731 
  252000    3.9663105     609.7561    1.2701077 
  254000    3.8009044     609.7561    1.2637489 
  256000     3.546934     609.7561    1.3099837 
  258000    3.4204403     609.7561    1.3491295 
  260000    3.6522223     609.7561    1.2858817 
  262000    3.4368797     609.7561    1.3049593 
  264000    3.4180565     609.7561    1.2972755 
  266000    3.4480404     609.7561    1.2932668 
  268000    3.1540943     609.7561    1.3201575 
  270000     3.393499     609.7561     1.290763 
  272000    3.1423142     609.7561    1.3138607 
  274000    3.0492481     609.7561    1.3243624 
  276000    3.1177421     609.7561    1.3171423 
  278000    3.7129734     609.7561    1.2300191 
  280000    3.4081374     609.7561    1.2645669 
  282000    3.2718577     609.7561    1.2715176 
  284000    3.1070237     609.7561    1.3003916 
  286000     3.349711     609.7561    1.2576644 
  288000    3.2402607     609.7561    1.2754828 
  290000    3.4290316     609.7561     1.247589 
  292000    3.1307329     609.7561    1.2972409 
  294000    3.2243417     609.7561    1.2757911 
  296000     3.497235     609.7561    1.2443636 
  298000    3.5242768     609.7561    1.2393282 
  300000    3.4928998     609.7561    1.2729981 
  302000    3.3244683     609.7561    1.2806981 
  304000    3.2797041     609.7561    1.2874126 
  306000    3.2800071     609.7561    1.2951959 
  308000    3.3805207     609.7561    1.2991527 
  310000     3.502989     609.7561    1.2914302 
  312000    3.1962153     609.7561    1.3376755 
  314000    3.3076835     609.7561    1.3242416 
  316000    3.5472925     609.7561    1.3106191 
  318000    3.4243383     609.7561    1.3152618 
  320000    3.5768297     609.7561    1.2915617 
  322000    3.3045715     609.7561     1.348385 
  324000    3.5088627     609.7561    1.3258114 
  326000    3.6540285     609.7561    1.3274855 
  328000    3.6007129     609.7561    1.3219828 
  330000    3.5472448     609.7561    1.3401461 
  332000    4.0128126     609.7561    1.2530187 
  334000    4.0699671     609.7561    1.2561437 
  336000    3.9092748     609.7561    1.2855162 
  338000     3.529677     609.7561    1.3507418 
  340000    3.8610602     609.7561    1.3051017 
  342000    3.5570096     609.7561    1.3513171 
  344000    3.6659674     609.7561    1.3250738 
  346000    3.7187495     609.7561    1.3281671 
  348000    3.5288556     609.7561    1.3499686 
  350000    3.6151621     609.7561     1.329262 
  352000    3.2835276     609.7561    1.3804264 
  354000    3.3070828     609.7561    1.3714252 
  356000     3.707947     609.7561    1.3074641 
  358000     3.742975     609.7561    1.3165416 
  360000    3.5051747     609.7561    1.3384838 
  362000    3.6114987     609.7561    1.3058287 
  364000    3.5650013     609.7561    1.3173186 
  366000    3.5148717     609.7561    1.3491348 
  368000    3.3615441     609.7561     1.330207 
  370000    3.4566771     609.7561    1.3194147 
  372000    3.6228142     609.7561    1.2793791 
  374000    3.2113786     609.7561    1.3365288 
  376000    3.6189805     609.7561    1.2700538 
  378000    3.5515986     609.7561    1.2806045 
  380000    3.5123909     609.7561    1.2791207 
  382000    3.5820963     609.7561     1.275364 
  384000    3.5367286     609.7561    1.2850029 
  386000    3.5339955     609.7561    1.2725626 
  388000    3.4096646     609.7561    1.2758879 
  390000    3.7239568     609.7561    1.2222926 
  392000    3.4552355     609.7561    1.2613177 
  394000     3.721243     609.7561    1.2351356 
  396000    3.5173994     609.7561    1.2365406 
  398000    3.4442976     609.7561    1.2509513 
  400000    3.6084993     609.7561    1.2514226 
  402000    2.9220038     609.7561    1.3341098 
  404000    3.4705779     609.7561    1.2579859 
  406000    3.3851957     609.7561    1.2742883 
  408000    3.2937138     609.7561    1.2886526 
  410000    3.2937096     609.7561     1.304646 
  412000    3.2625298     609.7561    1.3086286 
  414000    3.5721781     609.7561     1.243791 
  416000    3.5469653     609.7561    1.2650317 
  418000    3.5317418     609.7561    1.2802597 
  420000     3.581766     609.7561    1.2799277 
  422000    3.6933147     609.7561    1.2513492 
  424000     3.783995     609.7561    1.2779765 
  426000    3.5848901     609.7561    1.2909626 
  428000    3.7629823     609.7561    1.2772422 
  430000    3.8096536     609.7561    1.2700841 
  432000    3.7359735     609.7561    1.2759097 
  434000     3.625745     609.7561    1.3089791 
  436000    3.5224292     609.7561    1.3275704 
  438000    3.7910351     609.7561     1.285478 
  440000    3.8149715     609.7561    1.2857547 
  442000    3.5595542     609.7561    1.3315975 
  444000    3.5483919     609.7561    1.3414738 
  446000    3.9354573     609.7561    1.2685371 
  448000    3.8012728     609.7561    1.2951683 
  450000    3.4866716     609.7561    1.3531207 
  452000    3.6965534     609.7561     1.330913 
  454000    3.3014957     609.7561    1.3625754 
  456000    3.6285891     609.7561    1.3234612 
  458000    3.7976565     609.7561    1.2922723 
  460000    3.7356692     609.7561    1.3298553 
  462000    3.5658058     609.7561    1.3327156 
  464000    3.9580715     609.7561    1.2630026 
  466000    3.3580174     609.7561    1.3509273 
  468000    3.3350588     609.7561     1.354894 
  470000    3.4903526     609.7561    1.3175518 
  472000    3.5808884     609.7561    1.3281663 
  474000    3.9901298     609.7561    1.2439552 
  476000    3.8365595     609.7561     1.277473 
  478000    3.7294862     609.7561    1.2861325 
  480000    3.6247856     609.7561    1.3211609 
  482000    3.3849739     609.7561     1.321145 
  484000    3.4711877     609.7561    1.3337249 
  486000    3.5197867     609.7561    1.3009038 
  488000     3.588053     609.7561    1.3000336 
  490000    3.5402882     609.7561    1.2921299 
  492000    3.3537948     609.7561    1.3187989 
  494000    3.7083759     609.7561    1.2666526 
  496000    3.6380451     609.7561    1.2907537 
  498000    3.3454389     609.7561     1.324108 
  500000     3.416963     609.7561    1.3279454 
Loop time of 164.753 on 1 procs for 500000 steps with 500 atoms

Performance: 1311051.035 tau/day, 3034.840 timesteps/s
97.4% CPU use with 1 MPI tasks x no OpenMP threads

MPI task timing breakdown:
Section |  min time  |  avg time  |  max time  |%varavg| %total
---------------------------------------------------------------
Pair    | 136.03     | 136.03     | 136.03     |   0.0 | 82.57
Neigh   | 18.631     | 18.631     | 18.631     |   0.0 | 11.31
Comm    | 5.1197     | 5.1197     | 5.1197     |   0.0 |  3.11
Output  | 0.019751   | 0.019751   | 0.019751   |   0.0 |  0.01
Modify  | 4.0264     | 4.0264     | 4.0264     |   0.0 |  2.44
Other   |            | 0.9258     |            |       |  0.56

Nlocal:    500 ave 500 max 500 min
Histogram: 1 0 0 0 0 0 0 0 0 0
Nghost:    1767 ave 1767 max 1767 min
Histogram: 1 0 0 0 0 0 0 0 0 0
Neighs:    18375 ave 18375 max 18375 min
Histogram: 1 0 0 0 0 0 0 0 0 0

Total # of neighbors = 18375
Ave neighs/atom = 36.75
Neighbor list builds = 25000
Dangerous builds not checked
Total wall time: 0:02:44
