LAMMPS (19 Oct 2016)
# equation of state for LJ

variable temp equal 1.3
variable rho  equal 0.56

units lj
atom_style atomic

lattice    fcc ${rho}
lattice    fcc 0.56
Lattice spacing in x,y,z = 1.92586 1.92586 1.92586
region box block 0 5 0 5 0 5
create_box 1 box
Created orthogonal box = (0 0 0) to (9.62928 9.62928 9.62928)
  1 by 1 by 1 MPI processor grid
create_atoms 1 box
Created 500 atoms
mass       1 1.0

pair_style lj/cut 2.5
pair_coeff 1 1 1.0 1.0 2.5

velocity   all create ${temp} 87287
velocity   all create 1.3 87287

neighbor   0.3 bin
neigh_modify every 20 delay 0 check no

fix        1 all nvt temp ${temp} ${temp} 100
fix        1 all nvt temp 1.3 ${temp} 100
fix        1 all nvt temp 1.3 1.3 100
dump       1 all custom 70000 dump_t${temp}_r${rho}.lammpstrj id type x y z
dump       1 all custom 70000 dump_t1.3_r${rho}.lammpstrj id type x y z
dump       1 all custom 70000 dump_t1.3_r0.56.lammpstrj id type x y z
thermo     2000
thermo_style  custom step press vol temp
thermo_modify flush yes

run 500000
Neighbor list info ...
  1 neighbor list requests
  update every 20 steps, delay 0 steps, check no
  max neighbors/atom: 2000, page size: 100000
  master list distance cutoff = 2.8
  ghost atom cutoff = 2.8
  binsize = 1.4 -> bins = 7 7 7
Memory usage per processor = 3.2901 Mbytes
Step Press Volume Temp 
       0   -2.7281615    892.85714          1.3 
    2000   0.33503827    892.85714    1.2009709 
    4000   0.46915033    892.85714    1.2210016 
    6000   0.41090644    892.85714    1.2300471 
    8000   0.51595164    892.85714    1.2248756 
   10000   0.56773843    892.85714    1.2118971 
   12000   0.39777247    892.85714    1.2367686 
   14000   0.43392415    892.85714    1.2424726 
   16000   0.59747898    892.85714     1.235871 
   18000   0.62047443    892.85714    1.2353577 
   20000   0.52594116    892.85714    1.2587625 
   22000   0.61639651    892.85714    1.2327417 
   24000   0.40791938    892.85714    1.2688846 
   26000   0.62173878    892.85714    1.2392023 
   28000   0.62473852    892.85714    1.2620787 
   30000   0.56397452    892.85714    1.2505602 
   32000   0.31253299    892.85714    1.3253878 
   34000   0.60994589    892.85714    1.2798173 
   36000   0.66594959    892.85714    1.2995164 
   38000   0.39546691    892.85714    1.3069277 
   40000   0.55224764    892.85714    1.2877161 
   42000   0.66626212    892.85714    1.2740003 
   44000   0.74935239    892.85714     1.234378 
   46000   0.46885449    892.85714    1.2740906 
   48000   0.59264316    892.85714    1.2714887 
   50000   0.53244617    892.85714    1.2881584 
   52000   0.51724247    892.85714    1.2498771 
   54000   0.79260833    892.85714    1.2280523 
   56000   0.60084476    892.85714     1.266492 
   58000   0.64854683    892.85714    1.2622909 
   60000   0.58918877    892.85714    1.2824597 
   62000   0.52406194    892.85714    1.3070728 
   64000   0.52557083    892.85714    1.2908777 
   66000   0.53058235    892.85714    1.3027726 
   68000   0.44325108    892.85714    1.2873741 
   70000   0.46980026    892.85714    1.2963687 
   72000   0.83292424    892.85714    1.2394571 
   74000   0.55044184    892.85714    1.3277621 
   76000   0.79098753    892.85714    1.2994167 
   78000   0.46224119    892.85714    1.3207913 
   80000   0.53732226    892.85714     1.301602 
   82000   0.48185256    892.85714    1.3386368 
   84000   0.54384625    892.85714     1.297249 
   86000    0.6063716    892.85714    1.2994498 
   88000   0.56880226    892.85714    1.3238164 
   90000    0.4481727    892.85714    1.3384772 
   92000   0.63069433    892.85714     1.304725 
   94000   0.59210909    892.85714    1.3085001 
   96000   0.58757835    892.85714    1.3298278 
   98000   0.54821517    892.85714    1.3034873 
  100000   0.84949937    892.85714    1.2821908 
  102000   0.85000216    892.85714    1.2396117 
  104000   0.56818561    892.85714    1.3360405 
  106000   0.56144457    892.85714    1.3093829 
  108000   0.73039911    892.85714    1.2768754 
  110000   0.49944335    892.85714    1.3383842 
  112000   0.61151312    892.85714    1.3118895 
  114000   0.57951378    892.85714    1.3136835 
  116000   0.54379587    892.85714    1.2980503 
  118000   0.59250272    892.85714    1.2982872 
  120000   0.75163658    892.85714    1.2856722 
  122000   0.59009022    892.85714    1.3146333 
  124000   0.82871766    892.85714    1.2909631 
  126000   0.82479978    892.85714    1.2895887 
  128000   0.61471472    892.85714    1.3399715 
  130000   0.56133474    892.85714    1.3413028 
  132000    0.6039844    892.85714    1.3507371 
  134000   0.69617431    892.85714    1.3977297 
  136000   0.56157909    892.85714    1.4149234 
  138000   0.61288736    892.85714    1.4218321 
  140000   0.51175388    892.85714    1.4500083 
  142000   0.61031355    892.85714    1.4074466 
  144000   0.74693684    892.85714    1.4043746 
  146000   0.88695061    892.85714    1.3807513 
  148000   0.77656269    892.85714    1.3844534 
  150000   0.71782021    892.85714    1.3935372 
  152000   0.70697682    892.85714    1.4237915 
  154000   0.61937434    892.85714    1.3700318 
  156000   0.43086394    892.85714    1.4472452 
  158000    0.8240285    892.85714    1.3357573 
  160000   0.83948032    892.85714    1.3316698 
  162000   0.49147961    892.85714    1.3309992 
  164000    0.5292262    892.85714    1.3154947 
  166000   0.58195223    892.85714    1.2943248 
  168000   0.56530752    892.85714    1.3006493 
  170000   0.53044139    892.85714    1.3129405 
  172000   0.66125462    892.85714    1.2665287 
  174000   0.49814867    892.85714    1.2796997 
  176000   0.66231315    892.85714    1.2555716 
  178000   0.69048955    892.85714    1.2628027 
  180000   0.50651888    892.85714    1.2588549 
  182000   0.28369891    892.85714    1.2813581 
  184000   0.48734222    892.85714    1.2592769 
  186000   0.40168368    892.85714    1.2741183 
  188000   0.60457266    892.85714    1.2265095 
  190000   0.38949658    892.85714    1.2842894 
  192000    0.5168984    892.85714    1.2516577 
  194000   0.36873695    892.85714    1.2477879 
  196000   0.57400203    892.85714    1.2531255 
  198000   0.53112195    892.85714    1.2478591 
  200000   0.26874278    892.85714     1.279972 
  202000   0.60422173    892.85714    1.2204462 
  204000   0.56388657    892.85714    1.2448718 
  206000    0.4452976    892.85714    1.2562468 
  208000   0.35915599    892.85714    1.2705697 
  210000   0.51918502    892.85714    1.2351956 
  212000   0.37136277    892.85714    1.2759366 
  214000    0.3896613    892.85714    1.2526675 
  216000   0.70129352    892.85714    1.2229783 
  218000   0.47655313    892.85714    1.2234371 
  220000   0.40066061    892.85714    1.2494329 
  222000   0.47405261    892.85714    1.2689901 
  224000   0.59661198    892.85714    1.2706321 
  226000   0.21524134    892.85714     1.275684 
  228000   0.37756832    892.85714    1.2909346 
  230000   0.35468511    892.85714    1.2922897 
  232000   0.39918026    892.85714     1.261096 
  234000   0.55019739    892.85714    1.2947845 
  236000   0.47251339    892.85714     1.298603 
  238000   0.53992518    892.85714     1.242967 
  240000   0.50079823    892.85714    1.2661075 
  242000   0.47729408    892.85714     1.250138 
  244000   0.52900987    892.85714    1.2834817 
  246000   0.56368748    892.85714    1.2810098 
  248000   0.56885345    892.85714    1.3067457 
  250000   0.71463158    892.85714    1.2876776 
  252000   0.61497019    892.85714    1.2744771 
  254000   0.43612043    892.85714    1.3333663 
  256000   0.62658917    892.85714    1.2760548 
  258000   0.65533809    892.85714    1.2727468 
  260000   0.69611161    892.85714    1.2652116 
  262000   0.62504064    892.85714    1.2890794 
  264000   0.63718317    892.85714    1.2809743 
  266000   0.57216615    892.85714    1.3051069 
  268000   0.45176343    892.85714    1.2991831 
  270000   0.54926514    892.85714    1.3144024 
  272000   0.58821962    892.85714    1.2709035 
  274000   0.67746881    892.85714    1.2600723 
  276000   0.47263512    892.85714    1.3252548 
  278000   0.69913302    892.85714    1.2612856 
  280000   0.57039287    892.85714    1.2825786 
  282000   0.46042984    892.85714     1.291315 
  284000   0.34665302    892.85714    1.3009919 
  286000   0.84572028    892.85714    1.2655084 
  288000    0.6173332    892.85714     1.271436 
  290000   0.41977475    892.85714    1.3267532 
  292000   0.57786223    892.85714    1.2950965 
  294000   0.64822517    892.85714    1.2798945 
  296000   0.39299516    892.85714    1.3079928 
  298000    0.4329022    892.85714    1.2980988 
  300000   0.55200149    892.85714    1.3036194 
  302000   0.49240947    892.85714    1.2975163 
  304000    0.4531767    892.85714     1.302365 
  306000   0.58093499    892.85714     1.288136 
  308000    0.5540496    892.85714    1.3085073 
  310000   0.77192707    892.85714    1.2693117 
  312000    0.6180894    892.85714    1.2830065 
  314000   0.76538722    892.85714     1.242235 
  316000    0.5120134    892.85714    1.3061731 
  318000   0.71500437    892.85714    1.2744884 
  320000   0.33161408    892.85714    1.3630431 
  322000   0.40423682    892.85714    1.3074963 
  324000   0.63896899    892.85714    1.2679916 
  326000   0.74253589    892.85714     1.306977 
  328000   0.46015609    892.85714    1.3094175 
  330000   0.55692755    892.85714    1.2985644 
  332000   0.81957704    892.85714    1.2418069 
  334000   0.54544601    892.85714    1.3067311 
  336000    0.4391964    892.85714    1.3034829 
  338000   0.60402477    892.85714    1.2919128 
  340000   0.44965379    892.85714      1.30268 
  342000   0.26431168    892.85714    1.3385437 
  344000    0.5422545    892.85714     1.286762 
  346000   0.64945177    892.85714    1.2557354 
  348000   0.43217044    892.85714    1.3107683 
  350000   0.44514548    892.85714     1.298031 
  352000   0.46086894    892.85714    1.3072366 
  354000   0.57585754    892.85714     1.276195 
  356000   0.65435883    892.85714    1.2445792 
  358000   0.53943897    892.85714    1.2927247 
  360000   0.36910789    892.85714    1.3171677 
  362000   0.62144581    892.85714    1.2763743 
  364000   0.61964401    892.85714    1.2412894 
  366000    0.5231778    892.85714    1.2473716 
  368000   0.37797038    892.85714    1.2864116 
  370000   0.35172894    892.85714    1.3149872 
  372000   0.50460797    892.85714    1.2919115 
  374000   0.59852788    892.85714    1.2520819 
  376000   0.70167412    892.85714    1.2477231 
  378000   0.64984054    892.85714    1.2717039 
  380000     0.470401    892.85714    1.3029985 
  382000   0.43931151    892.85714    1.2807018 
  384000    0.5153359    892.85714    1.2879107 
  386000   0.62441824    892.85714    1.3009192 
  388000   0.54728331    892.85714    1.2751188 
  390000   0.62925307    892.85714    1.3171576 
  392000   0.64314744    892.85714     1.296008 
  394000   0.60679795    892.85714    1.3148467 
  396000    0.4505484    892.85714    1.3240129 
  398000   0.61777964    892.85714    1.3025465 
  400000   0.47442037    892.85714    1.3241015 
  402000   0.44176969    892.85714    1.3315295 
  404000   0.47722238    892.85714    1.3231313 
  406000   0.47613984    892.85714      1.32631 
  408000   0.59974601    892.85714    1.3113788 
  410000   0.55358579    892.85714    1.3410337 
  412000   0.61500047    892.85714     1.319323 
  414000    0.5417697    892.85714    1.3283434 
  416000   0.58721583    892.85714     1.334126 
  418000   0.49282966    892.85714    1.3316205 
  420000   0.63047105    892.85714    1.3251094 
  422000   0.62806492    892.85714    1.3004417 
  424000   0.46083422    892.85714    1.2681235 
  426000   0.71980186    892.85714    1.2634271 
  428000   0.53601799    892.85714    1.3263335 
  430000   0.64859669    892.85714     1.312773 
  432000   0.48457851    892.85714    1.3050226 
  434000   0.60847948    892.85714    1.2874098 
  436000   0.62864948    892.85714    1.3012246 
  438000   0.55768124    892.85714    1.3173852 
  440000   0.60695367    892.85714    1.3177839 
  442000   0.74058502    892.85714    1.3042482 
  444000    0.5816377    892.85714     1.316879 
  446000   0.56926593    892.85714    1.3077198 
  448000   0.55190825    892.85714    1.3295314 
  450000   0.58738665    892.85714    1.3438143 
  452000   0.82631074    892.85714    1.2973546 
  454000   0.70581642    892.85714    1.3410413 
  456000   0.56760285    892.85714    1.3527303 
  458000    0.5912419    892.85714    1.3473815 
  460000   0.47189671    892.85714    1.3744774 
  462000   0.70346949    892.85714    1.3430818 
  464000   0.86099939    892.85714    1.3259021 
  466000   0.66838026    892.85714    1.3788814 
  468000   0.72597585    892.85714    1.3741563 
  470000   0.95732665    892.85714    1.3187824 
  472000   0.64419068    892.85714    1.3989928 
  474000   0.65230989    892.85714    1.3622412 
  476000    0.6511196    892.85714    1.3330521 
  478000   0.61372387    892.85714    1.3486525 
  480000   0.64374217    892.85714    1.3445849 
  482000   0.62092013    892.85714      1.32242 
  484000    0.8409285    892.85714    1.3085655 
  486000   0.60847337    892.85714    1.3081015 
  488000   0.72666031    892.85714    1.2806641 
  490000   0.53091792    892.85714    1.3063211 
  492000   0.47835325    892.85714    1.3131727 
  494000   0.36489198    892.85714    1.3456525 
  496000   0.71772405    892.85714     1.262682 
  498000   0.63110494    892.85714    1.2548379 
  500000   0.54282427    892.85714     1.256455 
Loop time of 132.753 on 1 procs for 500000 steps with 500 atoms

Performance: 1627076.640 tau/day, 3766.381 timesteps/s
87.9% CPU use with 1 MPI tasks x no OpenMP threads

MPI task timing breakdown:
Section |  min time  |  avg time  |  max time  |%varavg| %total
---------------------------------------------------------------
Pair    | 102.24     | 102.24     | 102.24     |   0.0 | 77.02
Neigh   | 19.438     | 19.438     | 19.438     |   0.0 | 14.64
Comm    | 5.1801     | 5.1801     | 5.1801     |   0.0 |  3.90
Output  | 0.028117   | 0.028117   | 0.028117   |   0.0 |  0.02
Modify  | 4.8559     | 4.8559     | 4.8559     |   0.0 |  3.66
Other   |            | 1.01       |            |       |  0.76

Nlocal:    500 ave 500 max 500 min
Histogram: 1 0 0 0 0 0 0 0 0 0
Nghost:    1569 ave 1569 max 1569 min
Histogram: 1 0 0 0 0 0 0 0 0 0
Neighs:    12660 ave 12660 max 12660 min
Histogram: 1 0 0 0 0 0 0 0 0 0

Total # of neighbors = 12660
Ave neighs/atom = 25.32
Neighbor list builds = 25000
Dangerous builds not checked
Total wall time: 0:02:12
