LAMMPS (19 Oct 2016)
# equation of state for LJ

variable temp equal 1.3
variable rho  equal 1.11

units lj
atom_style atomic

lattice    fcc ${rho}
lattice    fcc 1.11
Lattice spacing in x,y,z = 1.53313 1.53313 1.53313
region box block 0 5 0 5 0 5
create_box 1 box
Created orthogonal box = (0 0 0) to (7.66565 7.66565 7.66565)
  1 by 1 by 1 MPI processor grid
create_atoms 1 box
Created 500 atoms
mass       1 1.0

pair_style lj/cut 2.5
pair_coeff 1 1 1.0 1.0 2.5

velocity   all create ${temp} 87287
velocity   all create 1.3 87287

neighbor   0.3 bin
neigh_modify every 20 delay 0 check no

fix        1 all nvt temp ${temp} ${temp} 100
fix        1 all nvt temp 1.3 ${temp} 100
fix        1 all nvt temp 1.3 1.3 100
dump       1 all custom 70000 dump_t${temp}_r${rho}.lammpstrj id type x y z
dump       1 all custom 70000 dump_t1.3_r${rho}.lammpstrj id type x y z
dump       1 all custom 70000 dump_t1.3_r1.11.lammpstrj id type x y z
thermo     2000
thermo_style  custom step press vol temp
thermo_modify flush yes

run 500000
Neighbor list info ...
  1 neighbor list requests
  update every 20 steps, delay 0 steps, check no
  max neighbors/atom: 2000, page size: 100000
  master list distance cutoff = 2.8
  ghost atom cutoff = 2.8
  binsize = 1.4 -> bins = 6 6 6
Memory usage per processor = 3.32155 Mbytes
Step Press Volume Temp 
       0    3.9794919    450.45045          1.3 
    2000    8.7215277    450.45045   0.67121735 
    4000    8.8370165    450.45045   0.66871944 
    6000    9.2316458    450.45045   0.63055119 
    8000    8.9821812    450.45045   0.68783319 
   10000    9.0856008    450.45045   0.69231518 
   12000    9.0320758    450.45045   0.71501893 
   14000    9.2684096    450.45045   0.69899185 
   16000    9.2331323    450.45045   0.72268055 
   18000    9.3367203    450.45045   0.73251359 
   20000    9.4221855    450.45045   0.74274429 
   22000    9.4267965    450.45045    0.7659843 
   24000    9.4081782    450.45045   0.79237827 
   26000    9.5577278    450.45045   0.79745579 
   28000    9.7200149    450.45045   0.80149655 
   30000    9.8434114    450.45045   0.81335888 
   32000    10.012639    450.45045   0.81805904 
   34000    10.142278    450.45045   0.83006343 
   36000    9.8825365    450.45045   0.89282671 
   38000     10.25301    450.45045   0.86684626 
   40000    10.380827    450.45045   0.88479454 
   42000    10.576327    450.45045   0.88590646 
   44000    11.020223    450.45045   0.85888777 
   46000     10.65984    450.45045   0.93662032 
   48000    10.964357    450.45045   0.92722851 
   50000    10.959255    450.45045   0.95750523 
   52000    11.562264    450.45045   0.90583739 
   54000    11.157797    450.45045   0.99688266 
   56000    11.385905    450.45045   0.99719037 
   58000    11.352322    450.45045    1.0338671 
   60000    11.831973    450.45045   0.99998858 
   62000    12.169822    450.45045   0.98607006 
   64000     11.82994    450.45045    1.0632425 
   66000    12.102706    450.45045    1.0657332 
   68000    11.942888    450.45045    1.1170661 
   70000    12.657427    450.45045    1.0509705 
   72000    11.970441    450.45045    1.1769966 
   74000    12.351152    450.45045    1.1560912 
   76000    13.024776    450.45045    1.1008722 
   78000      12.8212    450.45045    1.1624334 
   80000    13.576782    450.45045    1.0852721 
   82000    12.786807    450.45045    1.2227914 
   84000    12.979672    450.45045    1.2280701 
   86000    13.475948    450.45045    1.1971794 
   88000    13.464091    450.45045    1.2224473 
   90000    13.531781    450.45045    1.2384318 
   92000     13.71213    450.45045    1.2434632 
   94000    14.021769    450.45045    1.2237309 
   96000    13.952003    450.45045     1.271214 
   98000    13.651636    450.45045     1.331208 
  100000    13.709007    450.45045    1.3523701 
  102000    14.218438    450.45045     1.305192 
  104000    14.080011    450.45045    1.3395768 
  106000    14.790391    450.45045    1.2643187 
  108000      14.3489    450.45045    1.3412375 
  110000    14.435205    450.45045    1.3509975 
  112000    14.802409    450.45045    1.3166401 
  114000    14.560594    450.45045    1.3651697 
  116000    14.056548    450.45045    1.4435711 
  118000    14.707031    450.45045    1.3690184 
  120000    14.822708    450.45045    1.3630774 
  122000    14.769021    450.45045    1.3761899 
  124000    14.813157    450.45045     1.380526 
  126000    14.716011    450.45045    1.3888957 
  128000    14.694823    450.45045    1.3930377 
  130000    14.553658    450.45045    1.4146947 
  132000    14.718704    450.45045    1.3933569 
  134000    14.994421    450.45045    1.3443636 
  136000    14.435836    450.45045     1.419271 
  138000    14.497793    450.45045     1.404002 
  140000    15.090474    450.45045    1.3143145 
  142000    15.053037    450.45045    1.3043501 
  144000    14.727595    450.45045    1.3342423 
  146000    14.856155    450.45045    1.3031984 
  148000    14.975432    450.45045    1.2662526 
  150000    14.437453    450.45045    1.3323372 
  152000    14.211746    450.45045    1.3442552 
  154000    14.220874    450.45045    1.3252075 
  156000     14.82614    450.45045    1.2244551 
  158000    14.161192    450.45045     1.300744 
  160000    14.177824    450.45045     1.279296 
  162000    14.047599    450.45045    1.2855289 
  164000    14.115965    450.45045    1.2592757 
  166000    13.888415    450.45045    1.2736759 
  168000    13.566443    450.45045    1.3113138 
  170000    14.032671    450.45045     1.224752 
  172000    13.586555    450.45045    1.2740246 
  174000    13.877237    450.45045    1.2288502 
  176000     14.01367    450.45045    1.1931507 
  178000    13.813021    450.45045    1.2152044 
  180000    13.520269    450.45045    1.2463657 
  182000    13.216692    450.45045    1.2840161 
  184000    13.659405    450.45045    1.2183206 
  186000    14.023929    450.45045     1.167972 
  188000    13.479553    450.45045    1.2455324 
  190000    13.684141    450.45045     1.214148 
  192000    13.559612    450.45045    1.2326666 
  194000    14.008288    450.45045    1.1741746 
  196000    13.680914    450.45045    1.2185356 
  198000    13.664777    450.45045    1.2281767 
  200000    13.469686    450.45045    1.2593766 
  202000    13.522383    450.45045    1.2713174 
  204000    13.993884    450.45045    1.2105282 
  206000     13.70961    450.45045     1.258155 
  208000    13.992374    450.45045    1.2293668 
  210000    13.943756    450.45045    1.2504025 
  212000    14.274034    450.45045    1.2129491 
  214000    13.802659    450.45045    1.2946833 
  216000    14.274617    450.45045    1.2361059 
  218000    13.715266    450.45045     1.331478 
  220000    14.001948    450.45045    1.3054945 
  222000    14.295207    450.45045    1.2743962 
  224000    14.207479    450.45045    1.3057771 
  226000    14.572159    450.45045    1.2652931 
  228000    14.446526    450.45045    1.2985013 
  230000    14.245935    450.45045    1.3384642 
  232000    14.083649    450.45045    1.3692965 
  234000      14.6435    450.45045     1.299531 
  236000    14.301589    450.45045    1.3608067 
  238000    14.428929    450.45045    1.3402033 
  240000    14.712429    450.45045    1.3095214 
  242000    14.419331    450.45045     1.356671 
  244000    14.938675    450.45045    1.2938278 
  246000    14.953044    450.45045     1.295525 
  248000    14.648166    450.45045    1.3418002 
  250000    14.440143    450.45045    1.3678784 
  252000     14.23507    450.45045    1.3958157 
  254000     14.58884    450.45045      1.34863 
  256000    14.460251    450.45045    1.3634592 
  258000    14.384748    450.45045    1.3705833 
  260000    14.500434    450.45045    1.3525844 
  262000    14.358726    450.45045    1.3619648 
  264000    14.168837    450.45045    1.3794074 
  266000    14.437596    450.45045    1.3333446 
  268000    13.978829    450.45045    1.3856819 
  270000     14.41905    450.45045    1.3122318 
  272000    14.308883    450.45045    1.3191339 
  274000    14.556571    450.45045    1.2754313 
  276000     14.07413    450.45045    1.3291429 
  278000    14.699656    450.45045    1.2283071 
  280000    14.286863    450.45045    1.2815121 
  282000    13.518298    450.45045    1.3702012 
  284000    13.881275    450.45045    1.3114031 
  286000     13.95581    450.45045    1.2887976 
  288000    14.076408    450.45045    1.2609461 
  290000    13.884244    450.45045    1.2739598 
  292000    13.750029    450.45045    1.2830559 
  294000    13.770767    450.45045    1.2686672 
  296000    13.480303    450.45045    1.3090825 
  298000    13.696424    450.45045    1.2687144 
  300000    13.360416    450.45045    1.3114409 
  302000    13.687368    450.45045    1.2557027 
  304000    13.763208    450.45045    1.2471184 
  306000    13.442195    450.45045    1.2855521 
  308000    13.799007    450.45045    1.2383508 
  310000    13.901001    450.45045    1.2150012 
  312000    13.467006    450.45045    1.2795465 
  314000    13.655767    450.45045    1.2484905 
  316000    13.605177    450.45045    1.2611136 
  318000    13.515235    450.45045    1.2760577 
  320000    13.676644    450.45045    1.2612262 
  322000    13.711559    450.45045    1.2594709 
  324000    13.681818    450.45045    1.2739894 
  326000     13.70521    450.45045    1.2789255 
  328000     13.76205    450.45045    1.2723375 
  330000     13.71632    450.45045    1.2940829 
  332000    14.058121    450.45045    1.2580513 
  334000     13.67283    450.45045    1.3131759 
  336000    14.124294    450.45045    1.2640392 
  338000    13.726495    450.45045    1.3287604 
  340000     14.30258    450.45045    1.2599872 
  342000    14.080082    450.45045    1.3027157 
  344000    14.449489    450.45045    1.2626722 
  346000    14.279211    450.45045    1.2915154 
  348000    14.027636    450.45045    1.3395122 
  350000    14.121169    450.45045    1.3319473 
  352000    13.851018    450.45045    1.3867782 
  354000    14.146754    450.45045    1.3491506 
  356000     14.26345    450.45045    1.3373031 
  358000    14.336599    450.45045    1.3332939 
  360000    13.888861    450.45045    1.4016962 
  362000      14.6815    450.45045    1.3024697 
  364000    14.328038    450.45045    1.3559336 
  366000     14.37618    450.45045    1.3485141 
  368000    14.500026    450.45045    1.3400462 
  370000    14.349779    450.45045     1.352391 
  372000    14.849767    450.45045    1.2824198 
  374000    14.695473    450.45045    1.3096356 
  376000    14.371711    450.45045    1.3510819 
  378000     14.32031    450.45045    1.3510554 
  380000     14.33001    450.45045    1.3516304 
  382000    14.625285    450.45045    1.3069247 
  384000    14.296416    450.45045    1.3478779 
  386000    14.279427    450.45045     1.339983 
  388000    13.894437    450.45045    1.3897504 
  390000    14.366253    450.45045    1.3126612 
  392000    14.551441    450.45045    1.2823208 
  394000    14.225888    450.45045    1.3113024 
  396000    14.481713    450.45045    1.2654058 
  398000    14.181152    450.45045    1.3062246 
  400000    14.165485    450.45045    1.2954184 
  402000    14.293841    450.45045    1.2693181 
  404000    13.670958    450.45045    1.3382942 
  406000    13.862878    450.45045    1.3075747 
  408000    14.544486    450.45045    1.2079051 
  410000    13.592441    450.45045    1.3281343 
  412000    13.779978    450.45045    1.2926082 
  414000    13.521811    450.45045    1.3142794 
  416000    14.184124    450.45045    1.2235774 
  418000    14.325967    450.45045    1.1936464 
  420000     14.09016    450.45045    1.2251859 
  422000    13.782387    450.45045    1.2584307 
  424000    14.084335    450.45045    1.2178455 
  426000    13.356999    450.45045    1.3126389 
  428000    13.577161    450.45045    1.2854212 
  430000    13.573864    450.45045    1.2808237 
  432000    13.333377    450.45045    1.3129552 
  434000    14.059965    450.45045      1.21793 
  436000    13.669402    450.45045    1.2709907 
  438000    13.575026    450.45045    1.2875324 
  440000    13.738053    450.45045     1.263373 
  442000     13.99446    450.45045    1.2363174 
  444000    14.186339    450.45045    1.2179947 
  446000    13.984456    450.45045    1.2501031 
  448000    14.063654    450.45045     1.245872 
  450000    14.319857    450.45045    1.2206229 
  452000    13.772028    450.45045      1.30497 
  454000    14.251629    450.45045    1.2414718 
  456000    13.934689    450.45045    1.3086385 
  458000    14.009198    450.45045    1.2952616 
  460000    14.282942    450.45045    1.2782565 
  462000    14.306038    450.45045    1.2850318 
  464000    14.114285    450.45045    1.3169138 
  466000    14.720111    450.45045    1.2430485 
  468000    14.195326    450.45045    1.3183653 
  470000    14.251656    450.45045    1.3217096 
  472000    14.231995    450.45045    1.3283408 
  474000    14.426224    450.45045    1.3045536 
  476000    14.569286    450.45045    1.2931088 
  478000    14.579778    450.45045    1.2990468 
  480000    14.135973    450.45045    1.3636419 
  482000    14.347785    450.45045    1.3352332 
  484000    14.539541    450.45045    1.3071743 
  486000    14.263389    450.45045    1.3515359 
  488000    14.394128    450.45045    1.3340262 
  490000    14.453116    450.45045    1.3183638 
  492000    14.404921    450.45045    1.3254652 
  494000    14.773862    450.45045    1.2720237 
  496000    14.367736    450.45045    1.3241922 
  498000    14.322961    450.45045    1.3229504 
  500000    14.196907    450.45045    1.3390535 
Loop time of 203.791 on 1 procs for 500000 steps with 500 atoms

Performance: 1059906.936 tau/day, 2453.488 timesteps/s
96.0% CPU use with 1 MPI tasks x no OpenMP threads

MPI task timing breakdown:
Section |  min time  |  avg time  |  max time  |%varavg| %total
---------------------------------------------------------------
Pair    | 167.56     | 167.56     | 167.56     |   0.0 | 82.22
Neigh   | 25.392     | 25.392     | 25.392     |   nan | 12.46
Comm    | 5.6239     | 5.6239     | 5.6239     |   0.0 |  2.76
Output  | 0.024557   | 0.024557   | 0.024557   |   0.0 |  0.01
Modify  | 4.1156     | 4.1156     | 4.1156     |   0.0 |  2.02
Other   |            | 1.08       |            |       |  0.53

Nlocal:    500 ave 500 max 500 min
Histogram: 1 0 0 0 0 0 0 0 0 0
Nghost:    1956 ave 1956 max 1956 min
Histogram: 1 0 0 0 0 0 0 0 0 0
Neighs:    24025 ave 24025 max 24025 min
Histogram: 1 0 0 0 0 0 0 0 0 0

Total # of neighbors = 24025
Ave neighs/atom = 48.05
Neighbor list builds = 25000
Dangerous builds not checked
Total wall time: 0:03:23
