LAMMPS (19 Oct 2016)
# equation of state for LJ

variable temp equal 1.3
variable rho  equal 2.0

units lj
atom_style atomic

lattice    fcc ${rho}
lattice    fcc 2
Lattice spacing in x,y,z = 1.25992 1.25992 1.25992
region box block 0 5 0 5 0 5
create_box 1 box
Created orthogonal box = (0 0 0) to (6.29961 6.29961 6.29961)
  1 by 1 by 1 MPI processor grid
create_atoms 1 box
Created 500 atoms
mass       1 1.0

pair_style lj/cut 2.5
pair_coeff 1 1 1.0 1.0 2.5

velocity   all create ${temp} 87287
velocity   all create 1.3 87287

neighbor   0.3 bin
neigh_modify every 20 delay 0 check no

fix        1 all nvt temp ${temp} ${temp} 100
fix        1 all nvt temp 1.3 ${temp} 100
fix        1 all nvt temp 1.3 1.3 100
dump       1 all custom 70000 dump_t${temp}_r${rho}.lammpstrj id type x y z
dump       1 all custom 70000 dump_t1.3_r${rho}.lammpstrj id type x y z
dump       1 all custom 70000 dump_t1.3_r2.lammpstrj id type x y z
thermo     2000
thermo_style  custom step press vol temp
thermo_modify flush yes

run 500000
Neighbor list info ...
  1 neighbor list requests
  update every 20 steps, delay 0 steps, check no
  max neighbors/atom: 2000, page size: 100000
  master list distance cutoff = 2.8
  ghost atom cutoff = 2.8
  binsize = 1.4 -> bins = 5 5 5
Memory usage per processor = 3.36492 Mbytes
Step Press Volume Temp 
       0     551.8988          250          1.3 
    2000    559.50109          250   0.64475682 
    4000    559.41059          250   0.66203887 
    6000    559.31208          250    0.6913234 
    8000    559.61215          250   0.68329124 
   10000    559.61516          250   0.70262118 
   12000    559.99146          250   0.68608897 
   14000    560.03605          250   0.70027288 
   16000    560.30708          250   0.69466006 
   18000    560.15252          250   0.73138745 
   20000    560.70014          250    0.7050306 
   22000    560.50921          250   0.74845185 
   24000    560.64801          250   0.76161379 
   26000    560.96717          250   0.75775822 
   28000    560.95296          250   0.78598813 
   30000    561.05259          250    0.8038623 
   32000    561.61187          250   0.78497634 
   34000    561.58886          250   0.81537499 
   36000    561.82689          250   0.82554537 
   38000    562.53974          250   0.79395757 
   40000     562.3367          250   0.84098462 
   42000    562.35348          250   0.86871426 
   44000    562.92372          250   0.85107801 
   46000    563.01941          250   0.87313923 
   48000    563.45137          250   0.86928299 
   50000    563.21201          250    0.9221259 
   52000    563.63365          250   0.91873906 
   54000    563.91415          250   0.92820174 
   56000    563.68217          250   0.98118684 
   58000      563.927          250   0.99485548 
   60000    564.18463          250    1.0083448 
   62000    564.45341          250    1.0186592 
   64000     564.9638          250    1.0096568 
   66000    564.55028          250    1.0757457 
   68000    565.12708          250    1.0638781 
   70000    565.80596          250    1.0351072 
   72000    565.04355          250    1.1387768 
   74000    566.28066          250    1.0700049 
   76000    565.91815          250    1.1296367 
   78000    567.05305          250    1.0699179 
   80000    567.16633          250    1.0899243 
   82000    567.02866          250    1.1356578 
   84000    566.55957          250    1.2118438 
   86000    567.63359          250    1.1528836 
   88000    567.12314          250    1.2311174 
   90000    567.70125          250     1.212554 
   92000    567.69666          250       1.2472 
   94000    568.46628          250    1.2088886 
   96000    568.29783          250    1.2538379 
   98000    568.87547          250    1.2323842 
  100000    569.12408          250    1.2409438 
  102000    569.29563          250    1.2542408 
  104000    569.07755          250    1.3013214 
  106000    569.68424          250    1.2750953 
  108000    569.48704          250    1.3201819 
  110000    569.40581          250    1.3470886 
  112000    569.22372          250    1.3871695 
  114000    570.75797          250    1.2765343 
  116000    570.52973          250    1.3110245 
  118000    570.22845          250    1.3587869 
  120000    570.42131          250    1.3567388 
  122000    570.22106          250    1.3901354 
  124000    571.28665          250    1.3121547 
  126000    569.54528          250    1.4698216 
  128000    570.50417          250    1.3974067 
  130000    571.40636          250     1.326185 
  132000    570.26519          250    1.4312986 
  134000    571.62959          250    1.3161709 
  136000    570.95328          250    1.3697513 
  138000    570.76656          250    1.3849152 
  140000    570.81474          250    1.3760169 
  142000    571.00254          250    1.3552773 
  144000    571.30587          250    1.3231948 
  146000    570.11817          250    1.4102708 
  148000     569.9567          250     1.413676 
  150000    570.48389          250    1.3583871 
  152000    570.75287          250    1.3186607 
  154000    570.03931          250    1.3624798 
  156000    570.35839          250    1.3170075 
  158000    569.79808          250    1.3466182 
  160000    569.17007          250    1.3846715 
  162000    569.69342          250    1.3213523 
  164000    569.76798          250    1.2967719 
  166000     569.2563          250    1.3197346 
  168000    569.00006          250    1.3243635 
  170000    568.68328          250     1.335993 
  172000     569.3873          250    1.2591973 
  174000    568.75599          250    1.2950085 
  176000    569.25366          250    1.2387624 
  178000    568.84084          250    1.2617494 
  180000    568.72199          250    1.2621809 
  182000    568.39093          250    1.2774805 
  184000     568.6071          250    1.2465405 
  186000     568.3229          250    1.2618921 
  188000    568.59388          250    1.2319563 
  190000    568.30036          250    1.2497653 
  192000    567.81218          250    1.2904986 
  194000    568.28271          250    1.2405863 
  196000    568.63642          250    1.2088435 
  198000    567.90599          250    1.2732911 
  200000    569.00123          250    1.1798215 
  202000    568.00772          250    1.2672294 
  204000    568.28226          250    1.2468863 
  206000    568.46569          250    1.2368027 
  208000    568.49898          250    1.2406912 
  210000    568.14011          250    1.2781177 
  212000    569.02477          250    1.2093011 
  214000    568.29317          250    1.2826733 
  216000     568.7577          250    1.2508442 
  218000    569.14598          250    1.2333325 
  220000    569.01931          250    1.2568092 
  222000    568.96329          250    1.2742641 
  224000    568.77591          250     1.305816 
  226000    568.32475          250    1.3574451 
  228000    569.66099          250    1.2559125 
  230000    569.54268          250    1.2782645 
  232000    570.42688          250    1.2166237 
  234000    569.13425          250    1.3470096 
  236000    570.11837          250    1.2708178 
  238000    569.57519          250    1.3333034 
  240000    570.14538          250    1.2977997 
  242000    569.61097          250    1.3546394 
  244000    569.12598          250    1.4067442 
  246000    570.40526          250    1.3062761 
  248000    570.92672          250    1.2668421 
  250000     570.5013          250    1.3129138 
  252000    569.96755          250    1.3681196 
  254000    569.55364          250    1.4071241 
  256000    570.31099          250    1.3493384 
  258000    570.09256          250    1.3695016 
  260000    569.90581          250    1.3844326 
  262000     570.3014          250    1.3502327 
  264000    570.18473          250    1.3629066 
  266000    570.52294          250    1.3301143 
  268000    570.22514          250    1.3545576 
  270000    570.14646          250     1.354138 
  272000    569.83701          250    1.3733983 
  274000    569.71308          250    1.3732543 
  276000    569.17269          250    1.4129551 
  278000    570.26938          250    1.3106685 
  280000    569.81412          250    1.3398123 
  282000    570.64338          250    1.2524904 
  284000    569.42627          250    1.3490931 
  286000    569.78972          250    1.3028011 
  288000    569.81685          250     1.289994 
  290000    570.15867          250    1.2448668 
  292000    569.88607          250    1.2585068 
  294000    569.44897          250      1.28249 
  296000     569.6807          250    1.2499665 
  298000    569.80355          250    1.2258238 
  300000    568.48565          250    1.3305926 
  302000    569.07465          250    1.2712322 
  304000    568.38406          250    1.3199845 
  306000    569.50639          250    1.2139379 
  308000    568.59651          250    1.2808826 
  310000    569.45732          250    1.2011034 
  312000     569.3748          250    1.2045887 
  314000    568.66044          250    1.2599411 
  316000    568.42169          250    1.2766836 
  318000    568.18573          250    1.2913991 
  320000    568.92166          250    1.2256197 
  322000    568.71103          250    1.2440841 
  324000     568.2936          250     1.278504 
  326000    567.98965          250    1.3053739 
  328000    568.49777          250    1.2624186 
  330000    568.15884          250    1.2966409 
  332000     568.8262          250    1.2402674 
  334000    568.17829          250    1.3030914 
  336000    569.22305          250    1.2191227 
  338000    568.26307          250    1.3115387 
  340000    568.69459          250    1.2764111 
  342000    568.46876          250    1.3083637 
  344000    569.03124          250    1.2688244 
  346000    569.27184          250    1.2589642 
  348000    569.11888          250    1.2777173 
  350000    569.14565          250    1.2901115 
  352000    569.65542          250    1.2566362 
  354000    568.80007          250    1.3435382 
  356000     569.3495          250    1.3066091 
  358000    569.56074          250     1.300166 
  360000    570.38994          250    1.2380956 
  362000    569.62321          250    1.3131444 
  364000    569.38478          250    1.3418596 
  366000     569.6265          250    1.3293933 
  368000    569.92725          250    1.3135634 
  370000    569.98658          250    1.3192255 
  372000    569.66216          250    1.3501106 
  374000    569.56959          250    1.3647464 
  376000    569.45676          250    1.3838867 
  378000    570.19773          250     1.325379 
  380000    570.32182          250    1.3171842 
  382000    569.51689          250    1.3898514 
  384000    569.34426          250    1.4072851 
  386000     569.8356          250    1.3681329 
  388000    569.90361          250    1.3570917 
  390000    569.67106          250    1.3769638 
  392000    570.32737          250    1.3180755 
  394000    569.93807          250    1.3495234 
  396000    569.78997          250    1.3520592 
  398000    569.26076          250    1.3945515 
  400000    569.92671          250    1.3292004 
  402000     569.3149          250    1.3774006 
  404000    569.84214          250    1.3242109 
  406000    569.19303          250    1.3699734 
  408000     570.1953          250    1.2725101 
  410000    569.89326          250    1.2937268 
  412000    569.16574          250    1.3388863 
  414000    569.31145          250     1.319177 
  416000    568.56444          250    1.3727972 
  418000    569.60499          250    1.2723686 
  420000    569.33976          250    1.2848763 
  422000    569.43996          250    1.2661138 
  424000    568.71357          250    1.3228208 
  426000    568.81706          250    1.3038971 
  428000    569.75135          250    1.2167915 
  430000    569.08173          250    1.2643228 
  432000     568.8637          250     1.275938 
  434000    568.31337          250      1.31811 
  436000    569.26857          250    1.2314765 
  438000    568.86972          250    1.2580405 
  440000    569.07169          250    1.2380216 
  442000    568.39185          250    1.2920269 
  444000    568.06228          250    1.3204155 
  446000    569.44397          250    1.1982878 
  448000    568.77607          250    1.2572029 
  450000    567.89771          250    1.3310141 
  452000    568.46026          250    1.2846821 
  454000    569.00316          250    1.2442406 
  456000    568.78644          250    1.2652967 
  458000    568.68209          250    1.2763468 
  460000     568.0193          250    1.3346803 
  462000    569.24026          250    1.2404418 
  464000    568.75218          250    1.2878603 
  466000    569.08777          250    1.2654324 
  468000    568.48508          250    1.3286911 
  470000    569.90471          250    1.2116477 
  472000    569.23563          250    1.2831143 
  474000    568.93889          250    1.3170824 
  476000    569.87741          250    1.2412107 
  478000    569.50446          250     1.288885 
  480000    569.27464          250    1.3182789 
  482000    569.34788          250     1.319755 
  484000    569.47416          250    1.3185491 
  486000    569.52632          250    1.3260775 
  488000     569.5069          250    1.3351663 
  490000    569.80695          250    1.3145806 
  492000    569.80513          250    1.3223196 
  494000    569.18337          250    1.3833396 
  496000    570.18462          250    1.3024023 
  498000    570.42159          250    1.2855763 
  500000    569.45951          250    1.3741589 
Loop time of 379.985 on 1 procs for 500000 steps with 500 atoms

Performance: 568443.487 tau/day, 1315.841 timesteps/s
94.3% CPU use with 1 MPI tasks x no OpenMP threads

MPI task timing breakdown:
Section |  min time  |  avg time  |  max time  |%varavg| %total
---------------------------------------------------------------
Pair    | 323.45     | 323.45     | 323.45     |   0.0 | 85.12
Neigh   | 41.26      | 41.26      | 41.26      |   0.0 | 10.86
Comm    | 8.8695     | 8.8695     | 8.8695     |   0.0 |  2.33
Output  | 0.035408   | 0.035408   | 0.035408   |   0.0 |  0.01
Modify  | 4.6948     | 4.6948     | 4.6948     |   0.0 |  1.24
Other   |            | 1.678      |            |       |  0.44

Nlocal:    500 ave 500 max 500 min
Histogram: 1 0 0 0 0 0 0 0 0 0
Nghost:    2930 ave 2930 max 2930 min
Histogram: 1 0 0 0 0 0 0 0 0 0
Neighs:    45257 ave 45257 max 45257 min
Histogram: 1 0 0 0 0 0 0 0 0 0

Total # of neighbors = 45257
Ave neighs/atom = 90.514
Neighbor list builds = 25000
Dangerous builds not checked
Total wall time: 0:06:19
