LAMMPS (19 Oct 2016)
# equation of state for LJ

variable temp equal 3
variable rho  equal 0.84

units lj
atom_style atomic

lattice    fcc ${rho}
lattice    fcc 0.84
Lattice spacing in x,y,z = 1.68239 1.68239 1.68239
region box block 0 5 0 5 0 5
create_box 1 box
Created orthogonal box = (0 0 0) to (8.41195 8.41195 8.41195)
  1 by 1 by 1 MPI processor grid
create_atoms 1 box
Created 500 atoms
mass       1 1.0

pair_style lj/cut 2.5
pair_coeff 1 1 1.0 1.0 2.5

velocity   all create ${temp} 87287
velocity   all create 3 87287

neighbor   0.3 bin
neigh_modify every 20 delay 0 check no

fix        1 all nvt temp ${temp} ${temp} 100
fix        1 all nvt temp 3 ${temp} 100
fix        1 all nvt temp 3 3 100
dump       1 all custom 70000 dump_t${temp}_r${rho}.lammpstrj id type x y z
dump       1 all custom 70000 dump_t3_r${rho}.lammpstrj id type x y z
dump       1 all custom 70000 dump_t3_r0.84.lammpstrj id type x y z
thermo     2000
thermo_style  custom step press vol temp
thermo_modify flush yes

run 500000
Neighbor list info ...
  1 neighbor list requests
  update every 20 steps, delay 0 steps, check no
  max neighbors/atom: 2000, page size: 100000
  master list distance cutoff = 2.8
  ghost atom cutoff = 2.8
  binsize = 1.4 -> bins = 7 7 7
Memory usage per processor = 3.32306 Mbytes
Step Press Volume Temp 
       0   -3.7294636     595.2381            3 
    2000    6.0016689     595.2381    1.6327236 
    4000    5.3853085     595.2381    1.7464317 
    6000    5.9575053     595.2381    1.6682119 
    8000    5.8800435     595.2381    1.7117391 
   10000     5.500856     595.2381    1.7991919 
   12000    5.9444733     595.2381    1.7531995 
   14000    6.3920357     595.2381    1.7178976 
   16000    6.3757284     595.2381    1.7555744 
   18000    6.3542428     595.2381     1.795451 
   20000    6.5619064     595.2381    1.7811744 
   22000    6.7512829     595.2381    1.7924844 
   24000     7.005713     595.2381    1.8041554 
   26000    6.7841474     595.2381    1.8827379 
   28000    7.1144827     595.2381    1.8806898 
   30000    7.0297993     595.2381    1.9295948 
   32000    7.3950363     595.2381    1.9319954 
   34000    6.8779553     595.2381    2.0339008 
   36000    6.8202324     595.2381    2.0822881 
   38000    7.6322971     595.2381    2.0009652 
   40000    8.1024195     595.2381    1.9886266 
   42000    7.4115251     595.2381    2.1512815 
   44000    8.1484859     595.2381    2.0625026 
   46000    7.7669224     595.2381    2.1653127 
   48000    7.9501424     595.2381    2.1681851 
   50000    8.1426215     595.2381    2.1819853 
   52000    7.9977098     595.2381    2.2748153 
   54000    8.4202204     595.2381    2.2243185 
   56000    8.7605665     595.2381    2.2346996 
   58000     8.736837     595.2381     2.264478 
   60000    8.1203176     595.2381    2.4160515 
   62000    8.8623845     595.2381     2.335997 
   64000    9.5286106     595.2381    2.2445446 
   66000    9.2766548     595.2381     2.338998 
   68000    8.7420062     595.2381    2.4693567 
   70000    8.9181567     595.2381    2.4939111 
   72000    8.9439847     595.2381    2.5001428 
   74000    8.9865812     595.2381    2.5325182 
   76000    9.5053248     595.2381    2.4858987 
   78000    9.9309728     595.2381    2.4446054 
   80000    9.7170824     595.2381    2.5243056 
   82000    9.5094003     595.2381     2.587963 
   84000     10.15238     595.2381     2.528749 
   86000    9.4812966     595.2381    2.6626772 
   88000    10.054362     595.2381    2.5944078 
   90000    10.335902     595.2381    2.5816803 
   92000    10.134611     595.2381    2.6350093 
   94000    9.8723373     595.2381    2.7117209 
   96000    10.401212     595.2381    2.6310534 
   98000    10.213683     595.2381    2.6706569 
  100000    10.142255     595.2381    2.7028596 
  102000    10.912316     595.2381     2.600097 
  104000    9.9037685     595.2381    2.7694774 
  106000    10.780811     595.2381    2.6750031 
  108000    10.668992     595.2381    2.6949796 
  110000    10.348817     595.2381    2.7685062 
  112000    10.524097     595.2381    2.7744278 
  114000     10.33082     595.2381    2.8309864 
  116000      10.3508     595.2381    2.8087373 
  118000    10.058969     595.2381    2.8655297 
  120000    11.234076     595.2381    2.6847646 
  122000    11.520549     595.2381    2.6561335 
  124000    10.441698     595.2381    2.8582691 
  126000    10.859894     595.2381    2.7619066 
  128000    10.485142     595.2381    2.8423251 
  130000     11.46402     595.2381    2.6736467 
  132000    10.777904     595.2381    2.8187197 
  134000    10.367357     595.2381    2.9055838 
  136000    10.946099     595.2381    2.7852502 
  138000    11.176693     595.2381    2.7842262 
  140000    10.670009     595.2381    2.8484702 
  142000    10.913365     595.2381    2.8184337 
  144000    10.627666     595.2381    2.8765157 
  146000    10.650066     595.2381    2.8722201 
  148000    10.540909     595.2381    2.8828337 
  150000    10.989828     595.2381    2.8191958 
  152000    10.365073     595.2381    2.9085692 
  154000    11.001686     595.2381    2.7866385 
  156000    11.515423     595.2381     2.714165 
  158000    11.117936     595.2381    2.7988996 
  160000    10.784039     595.2381    2.8425112 
  162000    11.051183     595.2381    2.7838806 
  164000    11.271802     595.2381    2.7637861 
  166000    10.500791     595.2381    2.8782428 
  168000    10.592359     595.2381    2.8820825 
  170000      10.6256     595.2381    2.8735803 
  172000    11.470451     595.2381    2.7479166 
  174000    10.616924     595.2381    2.8806955 
  176000    10.916223     595.2381    2.8276588 
  178000    10.826727     595.2381    2.8609307 
  180000     10.78589     595.2381    2.8536821 
  182000    10.998528     595.2381    2.8078376 
  184000    10.955439     595.2381    2.8182463 
  186000    10.887155     595.2381    2.8259888 
  188000    10.839733     595.2381    2.8356455 
  190000    11.190837     595.2381    2.7587624 
  192000    10.980493     595.2381    2.8126644 
  194000    11.200707     595.2381    2.7956752 
  196000    10.409933     595.2381    2.9037608 
  198000    11.006954     595.2381    2.8193217 
  200000    11.023993     595.2381      2.79825 
  202000    11.306449     595.2381    2.7412569 
  204000    10.477861     595.2381    2.8920942 
  206000     10.92075     595.2381    2.8180363 
  208000    11.516665     595.2381    2.7127034 
  210000    11.533822     595.2381    2.6915846 
  212000    10.950998     595.2381    2.8386992 
  214000    10.904051     595.2381    2.8043962 
  216000     10.82381     595.2381    2.8316843 
  218000    10.833312     595.2381    2.8253509 
  220000    10.452254     595.2381    2.8944895 
  222000     10.68649     595.2381    2.8534781 
  224000    10.285852     595.2381     2.910749 
  226000    11.195423     595.2381    2.7551645 
  228000    10.620735     595.2381    2.8551742 
  230000    10.757926     595.2381    2.8244622 
  232000    10.407345     595.2381    2.8726539 
  234000    11.466633     595.2381    2.7420985 
  236000    10.491147     595.2381    2.8870327 
  238000    10.561302     595.2381    2.8687478 
  240000    10.189288     595.2381    2.9172433 
  242000    9.9678679     595.2381    2.9627165 
  244000    10.911606     595.2381    2.7927358 
  246000    10.209533     595.2381    2.9162501 
  248000    10.987879     595.2381    2.7987115 
  250000    11.262095     595.2381    2.7367661 
  252000    10.606948     595.2381    2.8511603 
  254000    10.496094     595.2381    2.8625765 
  256000    10.335359     595.2381    2.8954788 
  258000    10.561542     595.2381    2.8640693 
  260000    10.960082     595.2381    2.8105711 
  262000    10.363368     595.2381    2.8938514 
  264000    10.169397     595.2381    2.9139855 
  266000    11.004157     595.2381    2.7780231 
  268000    10.587946     595.2381    2.8501484 
  270000    10.413627     595.2381    2.8866182 
  272000    10.566268     595.2381    2.8473535 
  274000     10.73123     595.2381    2.8187296 
  276000    10.566371     595.2381    2.8723592 
  278000     11.01015     595.2381    2.7965299 
  280000    10.529829     595.2381    2.8591351 
  282000    11.018791     595.2381    2.7752513 
  284000    10.985425     595.2381    2.7867065 
  286000    10.701202     595.2381    2.8275377 
  288000    10.646681     595.2381    2.8399048 
  290000    10.517354     595.2381    2.8683458 
  292000      10.4238     595.2381    2.8573715 
  294000    10.656914     595.2381    2.8266126 
  296000    10.255241     595.2381    2.8959029 
  298000    11.096989     595.2381    2.7731626 
  300000    10.865805     595.2381    2.7843197 
  302000    10.688489     595.2381    2.8347562 
  304000    10.530731     595.2381    2.8584703 
  306000    10.280855     595.2381    2.8683596 
  308000    10.667602     595.2381    2.8422119 
  310000    10.129348     595.2381     2.928854 
  312000     10.53384     595.2381    2.8430334 
  314000    11.000953     595.2381    2.7777273 
  316000    10.843185     595.2381    2.7884091 
  318000    11.339354     595.2381    2.6818716 
  320000     11.42229     595.2381    2.6956982 
  322000    10.825527     595.2381    2.7945499 
  324000    10.900647     595.2381    2.7410281 
  326000      10.4203     595.2381    2.8702769 
  328000    10.714833     595.2381    2.7788373 
  330000    10.697525     595.2381    2.7874042 
  332000    10.955932     595.2381    2.7498303 
  334000    10.745519     595.2381    2.7820636 
  336000    10.670588     595.2381    2.8078999 
  338000    10.679531     595.2381     2.806688 
  340000    10.079093     595.2381     2.918411 
  342000     10.88156     595.2381    2.7934671 
  344000     10.02274     595.2381    2.9141572 
  346000    10.707923     595.2381    2.8041398 
  348000     10.61568     595.2381    2.8136683 
  350000    11.131226     595.2381    2.7255702 
  352000    10.404792     595.2381    2.8363818 
  354000    11.236657     595.2381     2.702919 
  356000    10.488208     595.2381    2.8270421 
  358000    10.520177     595.2381    2.8357983 
  360000    10.436372     595.2381    2.7931063 
  362000    10.967164     595.2381    2.7571933 
  364000    10.568472     595.2381    2.8210293 
  366000    11.398738     595.2381    2.6735712 
  368000    10.955336     595.2381    2.7568013 
  370000    10.537277     595.2381    2.8331069 
  372000    10.934668     595.2381    2.7350065 
  374000    10.297828     595.2381    2.8543193 
  376000    10.681699     595.2381    2.8057227 
  378000    10.657294     595.2381    2.7925408 
  380000     11.29916     595.2381    2.7117806 
  382000    10.425584     595.2381    2.8398069 
  384000    10.729921     595.2381    2.7719173 
  386000    10.307602     595.2381    2.8445749 
  388000    10.743521     595.2381    2.7874653 
  390000    10.588907     595.2381    2.8073381 
  392000    10.364417     595.2381    2.8534005 
  394000    10.436311     595.2381    2.8379089 
  396000    10.232674     595.2381    2.8592119 
  398000    10.647395     595.2381    2.7992199 
  400000    10.889251     595.2381    2.7354516 
  402000    10.200969     595.2381    2.8884437 
  404000     10.74386     595.2381    2.7823113 
  406000    11.083811     595.2381    2.6917722 
  408000    10.504599     595.2381    2.7696217 
  410000    10.222201     595.2381    2.8751371 
  412000     10.70653     595.2381    2.7782455 
  414000    10.934028     595.2381    2.7312673 
  416000    10.720618     595.2381    2.7727438 
  418000    10.217775     595.2381    2.8350516 
  420000    10.509454     595.2381     2.800878 
  422000    10.773816     595.2381    2.7590316 
  424000    10.732135     595.2381    2.7491091 
  426000    10.764315     595.2381     2.771011 
  428000    11.254596     595.2381    2.6700684 
  430000    10.699325     595.2381    2.7648663 
  432000    10.767624     595.2381    2.7660914 
  434000    10.099196     595.2381    2.8554251 
  436000     11.17164     595.2381    2.6978466 
  438000    10.266292     595.2381    2.8525664 
  440000    11.126293     595.2381    2.6855966 
  442000    11.242078     595.2381    2.6631968 
  444000    10.583741     595.2381    2.7856613 
  446000    10.537221     595.2381      2.78599 
  448000    10.607104     595.2381    2.7976308 
  450000    10.426863     595.2381    2.8162072 
  452000    10.473339     595.2381    2.8126322 
  454000     9.988002     595.2381    2.8783238 
  456000    10.942922     595.2381    2.7124466 
  458000    11.029152     595.2381    2.6737331 
  460000    10.467525     595.2381    2.7938009 
  462000    10.116894     595.2381    2.8493726 
  464000    10.461294     595.2381    2.7834769 
  466000    11.032744     595.2381    2.6981339 
  468000    10.642417     595.2381    2.7642172 
  470000    10.201771     595.2381     2.817867 
  472000     10.51982     595.2381    2.7820246 
  474000    10.560241     595.2381    2.7777113 
  476000    10.862296     595.2381    2.7241923 
  478000    10.773798     595.2381    2.7447831 
  480000    9.8006358     595.2381    2.9179756 
  482000    9.8319691     595.2381    2.9209249 
  484000    10.720792     595.2381    2.7482476 
  486000    10.352162     595.2381    2.8184017 
  488000     10.24746     595.2381    2.8421565 
  490000    10.370792     595.2381    2.8254668 
  492000    11.114852     595.2381    2.7018285 
  494000    11.583069     595.2381    2.5842278 
  496000    10.235665     595.2381    2.8327181 
  498000    10.727966     595.2381    2.7383948 
  500000    10.506436     595.2381    2.7887713 
Loop time of 170.881 on 1 procs for 500000 steps with 500 atoms

Performance: 1264038.227 tau/day, 2926.014 timesteps/s
95.8% CPU use with 1 MPI tasks x no OpenMP threads

MPI task timing breakdown:
Section |  min time  |  avg time  |  max time  |%varavg| %total
---------------------------------------------------------------
Pair    | 140.3      | 140.3      | 140.3      |   0.0 | 82.10
Neigh   | 19.678     | 19.678     | 19.678     |   0.0 | 11.52
Comm    | 5.5794     | 5.5794     | 5.5794     |   0.0 |  3.27
Output  | 0.018892   | 0.018892   | 0.018892   |   0.0 |  0.01
Modify  | 4.2844     | 4.2844     | 4.2844     |   0.0 |  2.51
Other   |            | 1.023      |            |       |  0.60

Nlocal:    500 ave 500 max 500 min
Histogram: 1 0 0 0 0 0 0 0 0 0
Nghost:    1824 ave 1824 max 1824 min
Histogram: 1 0 0 0 0 0 0 0 0 0
Neighs:    18904 ave 18904 max 18904 min
Histogram: 1 0 0 0 0 0 0 0 0 0

Total # of neighbors = 18904
Ave neighs/atom = 37.808
Neighbor list builds = 25000
Dangerous builds not checked
Total wall time: 0:02:50
