LAMMPS (19 Oct 2016)
# equation of state for LJ

variable temp equal 3
variable rho  equal 0.71

units lj
atom_style atomic

lattice    fcc ${rho}
lattice    fcc 0.71
Lattice spacing in x,y,z = 1.77937 1.77937 1.77937
region box block 0 5 0 5 0 5
create_box 1 box
Created orthogonal box = (0 0 0) to (8.89687 8.89687 8.89687)
  1 by 1 by 1 MPI processor grid
create_atoms 1 box
Created 500 atoms
mass       1 1.0

pair_style lj/cut 2.5
pair_coeff 1 1 1.0 1.0 2.5

velocity   all create ${temp} 87287
velocity   all create 3 87287

neighbor   0.3 bin
neigh_modify every 20 delay 0 check no

fix        1 all nvt temp ${temp} ${temp} 100
fix        1 all nvt temp 3 ${temp} 100
fix        1 all nvt temp 3 3 100
dump       1 all custom 70000 dump_t${temp}_r${rho}.lammpstrj id type x y z
dump       1 all custom 70000 dump_t3_r${rho}.lammpstrj id type x y z
dump       1 all custom 70000 dump_t3_r0.71.lammpstrj id type x y z
thermo     2000
thermo_style  custom step press vol temp
thermo_modify flush yes

run 500000
Neighbor list info ...
  1 neighbor list requests
  update every 20 steps, delay 0 steps, check no
  max neighbors/atom: 2000, page size: 100000
  master list distance cutoff = 2.8
  ghost atom cutoff = 2.8
  binsize = 1.4 -> bins = 7 7 7
Memory usage per processor = 3.32306 Mbytes
Step Press Volume Temp 
       0   -3.2614173    704.22535            3 
    2000    3.9677736    704.22535    1.9905826 
    4000    4.1463773    704.22535    1.9580781 
    6000    4.0246382    704.22535    2.0249435 
    8000    3.7950073    704.22535    2.0728453 
   10000    3.8900531    704.22535    2.0852386 
   12000    4.1376782    704.22535    2.0801531 
   14000     3.864269    704.22535    2.1084241 
   16000     4.093867    704.22535    2.1102282 
   18000    4.0300479    704.22535    2.1276125 
   20000    4.3530735    704.22535    2.1099171 
   22000    4.3261961    704.22535    2.1015723 
   24000    4.2324084    704.22535    2.1458219 
   26000    4.1058309    704.22535    2.1856516 
   28000    4.4467735    704.22535    2.1557046 
   30000    4.5608734    704.22535     2.168254 
   32000    4.4339654    704.22535    2.2083818 
   34000    4.2680867    704.22535    2.2686727 
   36000    4.4252371    704.22535    2.2626717 
   38000    4.6408061    704.22535    2.2390806 
   40000    4.3665938    704.22535    2.3247336 
   42000    4.1513966    704.22535    2.3896948 
   44000    4.3417919    704.22535    2.3898762 
   46000     4.755771    704.22535     2.332292 
   48000    4.9824659    704.22535    2.3024964 
   50000    4.8797003    704.22535    2.3696834 
   52000    4.6240069    704.22535    2.4185034 
   54000    5.1231623    704.22535    2.3508209 
   56000    4.9643324    704.22535    2.3885677 
   58000    5.0697311    704.22535    2.4148518 
   60000    4.9961094    704.22535    2.4458489 
   62000    5.3799174    704.22535     2.469248 
   64000    5.4516561    704.22535    2.4038221 
   66000    4.7221881    704.22535    2.5792667 
   68000    5.0521157    704.22535    2.5348295 
   70000    5.0827561    704.22535    2.5436582 
   72000    5.2527254    704.22535    2.5517074 
   74000    5.1328062    704.22535    2.6001077 
   76000    5.2540409    704.22535    2.5761439 
   78000    5.0484112    704.22535    2.6261379 
   80000    5.0987997    704.22535    2.6296034 
   82000    5.1206543    704.22535    2.6607167 
   84000    5.4770352    704.22535    2.5775131 
   86000    5.6741967    704.22535    2.5612253 
   88000    5.6621608    704.22535    2.5879708 
   90000     5.301626    704.22535    2.6668795 
   92000    5.3236415    704.22535    2.6964772 
   94000    5.2480508    704.22535    2.6768777 
   96000    4.8919044    704.22535    2.7548865 
   98000    5.9032863    704.22535    2.6028509 
  100000    5.6989809    704.22535    2.6537048 
  102000    5.9399008    704.22535    2.5948944 
  104000    5.5477895    704.22535    2.7050245 
  106000    5.6011098    704.22535     2.690575 
  108000    5.5971971    704.22535     2.679263 
  110000     5.724475    704.22535    2.6556383 
  112000    5.9886702    704.22535    2.6336218 
  114000    5.0811341    704.22535    2.8266624 
  116000     6.003936    704.22535     2.652716 
  118000    6.3173238    704.22535    2.6099394 
  120000    5.5950706    704.22535     2.750868 
  122000    5.5862766    704.22535    2.7239324 
  124000    5.9082439    704.22535    2.6720265 
  126000    6.0294014    704.22535    2.6633119 
  128000     5.909127    704.22535    2.6868367 
  130000    5.6707138    704.22535    2.7492989 
  132000    5.8532541    704.22535    2.7362117 
  134000    5.6584948    704.22535    2.7540992 
  136000     5.555828    704.22535    2.8033397 
  138000    5.5520652    704.22535    2.7739932 
  140000    5.8630027    704.22535     2.725414 
  142000    6.2874416    704.22535    2.6618656 
  144000    5.5673705    704.22535    2.7900928 
  146000    6.0418408    704.22535    2.6987157 
  148000    5.7092285    704.22535    2.7560919 
  150000    5.8583099    704.22535    2.7375094 
  152000    5.5763288    704.22535    2.8080399 
  154000    5.7665131    704.22535    2.7797098 
  156000    5.9703881    704.22535    2.7195085 
  158000    5.9005129    704.22535    2.7375523 
  160000    6.2607186    704.22535    2.6712051 
  162000    5.6430862    704.22535    2.7411974 
  164000     6.211343    704.22535    2.6783414 
  166000    6.2115721    704.22535     2.685014 
  168000    5.5474107    704.22535    2.7865221 
  170000    5.5340488    704.22535    2.7915302 
  172000    5.9352081    704.22535    2.7278542 
  174000    6.0000215    704.22535    2.7313303 
  176000    5.5065131    704.22535    2.7912244 
  178000    6.0107892    704.22535    2.7175539 
  180000    5.3600786    704.22535    2.8306432 
  182000    5.7806163    704.22535    2.7596672 
  184000    6.3623031    704.22535    2.6481164 
  186000    5.8094509    704.22535    2.7401378 
  188000    5.6673504    704.22535    2.7749593 
  190000    6.2392895    704.22535    2.6479045 
  192000    5.5662416    704.22535    2.8080822 
  194000    5.9904192    704.22535    2.7169333 
  196000     5.563951    704.22535    2.7955239 
  198000    5.7842961    704.22535    2.7566399 
  200000    5.5602066    704.22535    2.7797506 
  202000    5.5377285    704.22535    2.7839626 
  204000    5.9371126    704.22535    2.7299458 
  206000    5.4630977    704.22535    2.8217715 
  208000    5.7344619    704.22535    2.7667912 
  210000    5.8704866    704.22535     2.733324 
  212000    5.4073807    704.22535    2.7822345 
  214000    6.1404713    704.22535    2.6632322 
  216000    5.9251148    704.22535    2.7019469 
  218000    5.8323331    704.22535    2.7245591 
  220000    5.7684333    704.22535    2.7674555 
  222000    5.9341341    704.22535    2.7443306 
  224000    5.6713539    704.22535    2.7808997 
  226000     5.427514    704.22535    2.8005632 
  228000    5.9515913    704.22535    2.7062834 
  230000    5.9894202    704.22535    2.7334927 
  232000    5.5658218    704.22535    2.7816823 
  234000    6.1625279    704.22535    2.6858591 
  236000    5.5943618    704.22535    2.7676003 
  238000    5.7107275    704.22535    2.7808558 
  240000    5.4294321    704.22535    2.8019962 
  242000    5.9195797    704.22535    2.7156208 
  244000    6.2773712    704.22535    2.6398251 
  246000     5.399261    704.22535    2.8009307 
  248000    6.1270748    704.22535    2.6898065 
  250000    5.6655522    704.22535    2.7616142 
  252000    5.4876215    704.22535    2.7745437 
  254000    6.0390008    704.22535    2.7150945 
  256000    5.6050545    704.22535    2.7850773 
  258000    5.3234182    704.22535    2.7909723 
  260000    5.9011828    704.22535    2.7052977 
  262000    5.5847033    704.22535    2.7977493 
  264000    5.8255311    704.22535    2.7525079 
  266000    5.8527834    704.22535    2.7247134 
  268000    5.6394239    704.22535    2.7315437 
  270000    5.7919368    704.22535    2.7507214 
  272000    5.8188893    704.22535    2.7285315 
  274000    5.9521586    704.22535    2.7315856 
  276000     5.883163    704.22535    2.7152719 
  278000    5.6904524    704.22535    2.7400787 
  280000    6.3707872    704.22535     2.662036 
  282000    5.5639613    704.22535     2.785811 
  284000    5.7486484    704.22535    2.7500508 
  286000    5.4442522    704.22535    2.7970263 
  288000    5.9325286    704.22535    2.7115627 
  290000    5.4922375    704.22535    2.7815025 
  292000    5.4921616    704.22535    2.7810174 
  294000    5.6019139    704.22535    2.7774076 
  296000    5.8653432    704.22535     2.736531 
  298000     5.377001    704.22535    2.7895669 
  300000    5.8714421    704.22535    2.7107676 
  302000    5.6881663    704.22535    2.7727766 
  304000    5.8634827    704.22535    2.7067363 
  306000    5.6537698    704.22535    2.7499489 
  308000    5.4840131    704.22535    2.8006224 
  310000    6.3535029    704.22535    2.6073522 
  312000    5.9434897    704.22535    2.7133413 
  314000    5.8807729    704.22535    2.7374781 
  316000    5.7490698    704.22535    2.7670634 
  318000    5.9009559    704.22535     2.719828 
  320000    5.3597568    704.22535    2.8083619 
  322000    5.4338133    704.22535    2.7971307 
  324000    5.7112293    704.22535    2.7575375 
  326000    5.7281199    704.22535    2.7276599 
  328000    5.6745627    704.22535    2.7422826 
  330000    5.5842978    704.22535    2.7853211 
  332000    5.6393822    704.22535    2.7689032 
  334000    5.7979276    704.22535    2.7273914 
  336000    5.9792675    704.22535      2.69715 
  338000    6.1671338    704.22535    2.6678419 
  340000     5.841901    704.22535    2.7207356 
  342000    5.8389155    704.22535    2.7435782 
  344000     6.076327    704.22535    2.6980907 
  346000    5.6966871    704.22535    2.7320624 
  348000    5.8380439    704.22535    2.7233672 
  350000    5.7752178    704.22535     2.739191 
  352000    5.7641825    704.22535    2.7543466 
  354000    5.7744249    704.22535    2.7254533 
  356000    5.7532661    704.22535    2.7352672 
  358000    5.9723277    704.22535    2.6847043 
  360000    5.6120216    704.22535    2.7281541 
  362000    6.1273262    704.22535    2.6489834 
  364000    5.8926738    704.22535    2.7154393 
  366000    5.6154304    704.22535    2.7459192 
  368000    5.2296848    704.22535    2.8246979 
  370000    5.7917796    704.22535    2.7467193 
  372000     5.453805    704.22535    2.7872542 
  374000    5.7730386    704.22535    2.7362296 
  376000    6.1599512    704.22535    2.6510956 
  378000    6.0408847    704.22535    2.6777534 
  380000     5.617499    704.22535    2.7850859 
  382000    5.2221218    704.22535    2.8134372 
  384000    5.7287878    704.22535     2.726128 
  386000     5.538731    704.22535    2.7384821 
  388000    5.4670816    704.22535    2.7784783 
  390000     5.667727    704.22535    2.7545105 
  392000    5.9400909    704.22535    2.7025775 
  394000    5.9367133    704.22535    2.6999471 
  396000       5.9679    704.22535    2.7239016 
  398000     5.749453    704.22535    2.7714397 
  400000    6.0440099    704.22535    2.7044295 
  402000    6.0533915    704.22535    2.6518904 
  404000    5.9045006    704.22535    2.6938784 
  406000     5.768864    704.22535    2.7027296 
  408000    5.6606968    704.22535    2.7595588 
  410000    5.5911202    704.22535    2.7724559 
  412000    5.6494101    704.22535    2.7454447 
  414000    5.8256599    704.22535    2.7247158 
  416000    5.7388656    704.22535    2.7407918 
  418000    5.8210517    704.22535     2.731904 
  420000    5.9086952    704.22535     2.690388 
  422000    5.6359659    704.22535    2.7371783 
  424000    5.9905183    704.22535    2.6802901 
  426000    5.5060812    704.22535    2.7738003 
  428000    5.8430956    704.22535    2.7023771 
  430000    5.7042599    704.22535    2.7410921 
  432000    5.2828324    704.22535    2.8324021 
  434000    5.8074979    704.22535    2.7364247 
  436000    6.0308842    704.22535    2.6634011 
  438000    6.2488143    704.22535    2.6464743 
  440000    5.9943669    704.22535    2.6939543 
  442000    5.7734252    704.22535    2.7383325 
  444000    5.5727566    704.22535     2.744171 
  446000     5.605813    704.22535    2.7759507 
  448000    5.7116853    704.22535    2.7372601 
  450000     5.760589    704.22535    2.7067061 
  452000    5.3588722    704.22535     2.789626 
  454000    5.6515935    704.22535    2.7454648 
  456000    5.5487796    704.22535    2.7478841 
  458000    6.0520886    704.22535    2.6825469 
  460000    5.7742793    704.22535    2.7394487 
  462000    5.6035219    704.22535    2.7458153 
  464000    5.7697648    704.22535    2.7378148 
  466000    5.4640007    704.22535     2.784065 
  468000    6.0264177    704.22535    2.6686461 
  470000    5.5380018    704.22535    2.7443505 
  472000    5.9320289    704.22535    2.6872697 
  474000    5.8936959    704.22535    2.6823488 
  476000    5.4173844    704.22535    2.7912194 
  478000    5.8569931    704.22535    2.7000956 
  480000     5.910092    704.22535    2.7083903 
  482000    5.9246096    704.22535    2.6785274 
  484000    6.1450651    704.22535    2.6330003 
  486000    5.7462728    704.22535    2.7420087 
  488000    5.8677031    704.22535    2.7193738 
  490000    5.2178937    704.22535     2.855154 
  492000    5.6553179    704.22535    2.7624976 
  494000    5.8566741    704.22535    2.7128805 
  496000    5.7324561    704.22535    2.7268387 
  498000    5.2865884    704.22535    2.8198295 
  500000    5.8117161    704.22535    2.7216344 
Loop time of 158.181 on 1 procs for 500000 steps with 500 atoms

Performance: 1365521.291 tau/day, 3160.929 timesteps/s
90.6% CPU use with 1 MPI tasks x no OpenMP threads

MPI task timing breakdown:
Section |  min time  |  avg time  |  max time  |%varavg| %total
---------------------------------------------------------------
Pair    | 127.16     | 127.16     | 127.16     |   0.0 | 80.39
Neigh   | 19.439     | 19.439     | 19.439     |   0.0 | 12.29
Comm    | 5.5283     | 5.5283     | 5.5283     |   0.0 |  3.49
Output  | 0.032444   | 0.032444   | 0.032444   |   0.0 |  0.02
Modify  | 4.9892     | 4.9892     | 4.9892     |   0.0 |  3.15
Other   |            | 1.03       |            |       |  0.65

Nlocal:    500 ave 500 max 500 min
Histogram: 1 0 0 0 0 0 0 0 0 0
Nghost:    1675 ave 1675 max 1675 min
Histogram: 1 0 0 0 0 0 0 0 0 0
Neighs:    16109 ave 16109 max 16109 min
Histogram: 1 0 0 0 0 0 0 0 0 0

Total # of neighbors = 16109
Ave neighs/atom = 32.218
Neighbor list builds = 25000
Dangerous builds not checked
Total wall time: 0:02:38
