LAMMPS (19 Oct 2016)
# equation of state for LJ

variable temp equal 3
variable rho  equal 0.885

units lj
atom_style atomic

lattice    fcc ${rho}
lattice    fcc 0.885
Lattice spacing in x,y,z = 1.65338 1.65338 1.65338
region box block 0 5 0 5 0 5
create_box 1 box
Created orthogonal box = (0 0 0) to (8.26689 8.26689 8.26689)
  1 by 1 by 1 MPI processor grid
create_atoms 1 box
Created 500 atoms
mass       1 1.0

pair_style lj/cut 2.5
pair_coeff 1 1 1.0 1.0 2.5

velocity   all create ${temp} 87287
velocity   all create 3 87287

neighbor   0.3 bin
neigh_modify every 20 delay 0 check no

fix        1 all nvt temp ${temp} ${temp} 100
fix        1 all nvt temp 3 ${temp} 100
fix        1 all nvt temp 3 3 100
dump       1 all custom 70000 dump_t${temp}_r${rho}.lammpstrj id type x y z
dump       1 all custom 70000 dump_t3_r${rho}.lammpstrj id type x y z
dump       1 all custom 70000 dump_t3_r0.885.lammpstrj id type x y z
thermo     2000
thermo_style  custom step press vol temp
thermo_modify flush yes

run 500000
Neighbor list info ...
  1 neighbor list requests
  update every 20 steps, delay 0 steps, check no
  max neighbors/atom: 2000, page size: 100000
  master list distance cutoff = 2.8
  ghost atom cutoff = 2.8
  binsize = 1.4 -> bins = 6 6 6
Memory usage per processor = 3.32155 Mbytes
Step Press Volume Temp 
       0   -3.3477315    564.97175            3 
    2000    7.1899764    564.97175    1.4951665 
    4000     6.880899    564.97175     1.550225 
    6000     6.881768    564.97175    1.5941268 
    8000    6.9195368    564.97175    1.6174962 
   10000    7.1861852    564.97175    1.6055599 
   12000    7.3218499    564.97175    1.6081174 
   14000    7.8013052    564.97175    1.5859685 
   16000    7.2482469    564.97175    1.6984275 
   18000     7.702273    564.97175    1.6724288 
   20000    7.8278568    564.97175    1.7073007 
   22000    8.0558374    564.97175    1.7090121 
   24000    7.7115329    564.97175    1.8002687 
   26000    8.2257106    564.97175    1.7625322 
   28000    8.4820473    564.97175    1.7596037 
   30000    8.4269665    564.97175    1.8310314 
   32000     8.488282    564.97175    1.8583811 
   34000    9.0228719    564.97175    1.8262461 
   36000    8.6864573    564.97175    1.9241114 
   38000    9.1336454    564.97175    1.9068064 
   40000    8.6908408    564.97175    2.0270202 
   42000    9.7542717    564.97175    1.9230039 
   44000     9.581809    564.97175    2.0006678 
   46000    9.5782149    564.97175    2.0299042 
   48000    9.2449344    564.97175     2.157298 
   50000      9.77399    564.97175    2.1013857 
   52000    9.7067505    564.97175    2.1662206 
   54000    10.014886    564.97175    2.1667729 
   56000     10.43898    564.97175    2.1558377 
   58000    10.511329    564.97175    2.1901815 
   60000    10.247436    564.97175    2.2831973 
   62000    10.911462    564.97175    2.2227746 
   64000    10.498677    564.97175    2.3361027 
   66000    10.377828    564.97175    2.3984752 
   68000    11.316474    564.97175    2.3054628 
   70000    10.833797    564.97175    2.4324778 
   72000    11.154713    564.97175    2.4334528 
   74000    11.330251    564.97175    2.4355202 
   76000    11.426844    564.97175    2.4667195 
   78000    11.842776    564.97175     2.438405 
   80000    11.659141    564.97175    2.5014609 
   82000     11.69242    564.97175    2.5435304 
   84000    11.861597    564.97175    2.5728502 
   86000    12.016303    564.97175    2.5637317 
   88000    12.388406    564.97175    2.5304195 
   90000    11.840249    564.97175    2.6686614 
   92000    12.836427    564.97175    2.5405812 
   94000    11.812078    564.97175    2.7374997 
   96000    12.041081    564.97175    2.7360853 
   98000    12.308189    564.97175    2.6947852 
  100000    11.894465    564.97175    2.7920136 
  102000     12.89291    564.97175     2.659186 
  104000    13.072088    564.97175    2.6936573 
  106000    12.462922    564.97175    2.7900301 
  108000    12.906968    564.97175    2.7436068 
  110000    12.711549    564.97175     2.776673 
  112000    12.720876    564.97175    2.8192134 
  114000    12.837884    564.97175    2.8123854 
  116000    13.312173    564.97175    2.7583434 
  118000    12.891297    564.97175    2.8291907 
  120000    13.370898    564.97175    2.7422013 
  122000    12.571641    564.97175    2.8987283 
  124000    13.072295    564.97175    2.8444576 
  126000    13.035696    564.97175    2.8798551 
  128000    12.813604    564.97175    2.9067295 
  130000    12.732059    564.97175    2.9277511 
  132000    13.073244    564.97175    2.8994516 
  134000    13.796109    564.97175    2.7915914 
  136000    13.422286    564.97175    2.8490384 
  138000     13.49669    564.97175    2.8410004 
  140000    13.322313    564.97175    2.8959828 
  142000    13.292942    564.97175    2.8827356 
  144000    14.011942    564.97175    2.7723623 
  146000    13.537788    564.97175    2.8813204 
  148000    13.484972    564.97175    2.8805041 
  150000    12.994203    564.97175    2.9408065 
  152000    13.376084    564.97175     2.909041 
  154000    13.339245    564.97175    2.9089515 
  156000    13.056774    564.97175    2.9390691 
  158000    13.094332    564.97175    2.9370721 
  160000    13.310657    564.97175    2.8875797 
  162000    13.430816    564.97175    2.8720424 
  164000    13.172886    564.97175    2.9203759 
  166000    12.787378    564.97175    3.0067328 
  168000    13.658779    564.97175     2.830029 
  170000    14.211979    564.97175    2.7504466 
  172000    13.508102    564.97175    2.8500751 
  174000    13.148247    564.97175    2.9297414 
  176000    12.943177    564.97175    2.9461974 
  178000    14.127272    564.97175    2.7538402 
  180000    13.670985    564.97175    2.8437031 
  182000    13.416612    564.97175      2.87395 
  184000    13.354536    564.97175    2.8783355 
  186000    13.554884    564.97175    2.8414587 
  188000    13.516038    564.97175    2.8493387 
  190000    12.909423    564.97175    2.9459915 
  192000    12.830343    564.97175    2.9664468 
  194000    13.284777    564.97175    2.8892711 
  196000    12.647908    564.97175    2.9895981 
  198000     13.45177    564.97175    2.8529683 
  200000    12.449453    564.97175    3.0204905 
  202000    13.751015    564.97175     2.819551 
  204000    13.181232    564.97175    2.8833118 
  206000    13.139155    564.97175    2.9000136 
  208000    12.489216    564.97175    3.0126662 
  210000    12.716893    564.97175    2.9590628 
  212000     13.26139    564.97175    2.9067892 
  214000    13.215533    564.97175    2.9054594 
  216000     13.05415    564.97175    2.9277122 
  218000    13.288304    564.97175    2.8831535 
  220000    13.214154    564.97175    2.9054576 
  222000    13.806616    564.97175    2.7835172 
  224000    13.538748    564.97175    2.8350347 
  226000    13.537745    564.97175    2.8424169 
  228000    13.007108    564.97175    2.9060409 
  230000    13.482473    564.97175     2.833771 
  232000    13.287379    564.97175    2.8801875 
  234000    12.919346    564.97175    2.9290726 
  236000    13.909189    564.97175    2.7713992 
  238000    13.245714    564.97175    2.8799328 
  240000    13.204706    564.97175    2.8851286 
  242000    13.789207    564.97175    2.7870364 
  244000     13.72332    564.97175    2.8025585 
  246000    13.017417    564.97175    2.9261228 
  248000    13.122039    564.97175    2.8937697 
  250000    12.742735    564.97175    2.9460168 
  252000    13.698728    564.97175    2.7964662 
  254000      13.6393    564.97175     2.843443 
  256000    13.564943    564.97175    2.8193294 
  258000    12.718241    564.97175    2.9111672 
  260000    12.825424    564.97175    2.9304752 
  262000    12.436787    564.97175    2.9831357 
  264000    13.399345    564.97175     2.842508 
  266000    13.595384    564.97175    2.8139964 
  268000    12.766268    564.97175    2.9223478 
  270000     13.00407    564.97175    2.9242443 
  272000    14.133615    564.97175    2.7347014 
  274000    13.553739    564.97175    2.7796322 
  276000    13.494455    564.97175    2.8197977 
  278000     13.51265    564.97175    2.8020503 
  280000    13.273168    564.97175     2.822142 
  282000     13.22396    564.97175     2.871445 
  284000    13.128486    564.97175    2.8852552 
  286000    13.790712    564.97175    2.7681423 
  288000    13.663026    564.97175    2.7810473 
  290000    12.485438    564.97175    3.0048399 
  292000    12.893567    564.97175    2.9006255 
  294000    13.140919    564.97175     2.846458 
  296000    13.160514    564.97175    2.8822629 
  298000    13.146229    564.97175    2.8974344 
  300000    13.383469    564.97175    2.8440486 
  302000    13.501888    564.97175    2.8062607 
  304000    12.921022    564.97175    2.8946775 
  306000    13.665812    564.97175    2.8102443 
  308000    12.737586    564.97175    2.9319715 
  310000    13.661636    564.97175    2.7820532 
  312000    13.531857    564.97175    2.7840738 
  314000    13.631231    564.97175    2.7808892 
  316000    12.827457    564.97175    2.9417488 
  318000    12.911662    564.97175    2.9058161 
  320000    13.384626    564.97175    2.8038051 
  322000    12.797254    564.97175    2.9266205 
  324000    13.522647    564.97175    2.7827027 
  326000    12.273413    564.97175    2.9996569 
  328000    13.888073    564.97175    2.7317458 
  330000    12.350526    564.97175    2.9865717 
  332000     13.19803    564.97175    2.8540424 
  334000    12.725271    564.97175     2.933648 
  336000      13.5612    564.97175     2.776841 
  338000    12.805189    564.97175    2.9028293 
  340000    12.866732    564.97175     2.900959 
  342000    13.033849    564.97175     2.856062 
  344000    12.874959    564.97175    2.8892809 
  346000    13.197342    564.97175    2.8278445 
  348000    12.642421    564.97175    2.9125218 
  350000    12.631194    564.97175    2.9403584 
  352000    13.104922    564.97175    2.8467581 
  354000      12.8532    564.97175    2.9042072 
  356000    12.600689    564.97175    2.9474938 
  358000     13.29563    564.97175    2.8163932 
  360000    13.255197    564.97175    2.8290908 
  362000    13.350598    564.97175    2.8249381 
  364000    13.379238    564.97175    2.7935786 
  366000    13.458595    564.97175    2.7729388 
  368000    13.031646    564.97175    2.8643135 
  370000    13.065687    564.97175    2.8545865 
  372000    13.220831    564.97175    2.8362153 
  374000    13.366123    564.97175    2.7972483 
  376000    13.350065    564.97175    2.8137491 
  378000     13.18327    564.97175    2.8280972 
  380000    12.447141    564.97175    2.9386891 
  382000    13.040479    564.97175    2.8416579 
  384000    13.288686    564.97175    2.8055108 
  386000    13.557897    564.97175    2.7403025 
  388000    13.647041    564.97175     2.750537 
  390000    13.662431    564.97175    2.7329865 
  392000    12.590714    564.97175    2.9294519 
  394000    13.238304    564.97175    2.7896788 
  396000    13.534078    564.97175    2.7802563 
  398000      12.7981    564.97175    2.8918835 
  400000    12.433523    564.97175    2.9436409 
  402000    13.214983    564.97175    2.8093572 
  404000    13.014818    564.97175    2.7988459 
  406000    13.409043    564.97175    2.7892635 
  408000    12.918722    564.97175    2.8503376 
  410000    12.618807    564.97175    2.8892965 
  412000    13.480831    564.97175    2.7899675 
  414000    13.066234    564.97175    2.8360304 
  416000    12.815422    564.97175    2.8475356 
  418000      12.3964    564.97175    2.9374494 
  420000    13.553778    564.97175    2.7445295 
  422000    13.452576    564.97175    2.7649497 
  424000    13.556977    564.97175    2.7288068 
  426000    13.274902    564.97175    2.7672882 
  428000    13.873446    564.97175    2.6911464 
  430000    13.486987    564.97175    2.7520858 
  432000    12.592001    564.97175    2.9114256 
  434000    13.312704    564.97175    2.7828893 
  436000    12.930563    564.97175     2.839123 
  438000    12.543474    564.97175    2.9057959 
  440000    12.849669    564.97175    2.8629497 
  442000    12.748218    564.97175    2.8752442 
  444000    13.377017    564.97175    2.7656421 
  446000    14.069478    564.97175    2.6384723 
  448000    12.710371    564.97175    2.8546895 
  450000    13.177692    564.97175    2.8048594 
  452000    13.052482    564.97175    2.8067001 
  454000    13.368795    564.97175    2.7453631 
  456000    13.202435    564.97175    2.7854425 
  458000    12.716979    564.97175    2.8822472 
  460000    12.442367    564.97175    2.9152078 
  462000    13.461482    564.97175    2.7416077 
  464000    13.072987    564.97175    2.8295073 
  466000    13.019211    564.97175    2.8180687 
  468000    13.232131    564.97175    2.7808143 
  470000    13.054831    564.97175    2.8086633 
  472000    13.015478    564.97175    2.8124138 
  474000    12.820064    564.97175    2.8372959 
  476000    13.220052    564.97175    2.8025336 
  478000    13.448155    564.97175    2.7414839 
  480000    13.374006    564.97175    2.7606366 
  482000    13.001234    564.97175    2.8115428 
  484000    13.028472    564.97175    2.8324218 
  486000    13.014068    564.97175    2.8360886 
  488000    13.299868    564.97175    2.7607138 
  490000    12.842429    564.97175    2.8369014 
  492000    12.860726    564.97175    2.8153778 
  494000    12.453314    564.97175    2.9008597 
  496000    12.735162    564.97175    2.8493971 
  498000    13.118185    564.97175    2.7656526 
  500000    13.351664    564.97175    2.7690794 
Loop time of 179.971 on 1 procs for 500000 steps with 500 atoms

Performance: 1200191.365 tau/day, 2778.221 timesteps/s
96.7% CPU use with 1 MPI tasks x no OpenMP threads

MPI task timing breakdown:
Section |  min time  |  avg time  |  max time  |%varavg| %total
---------------------------------------------------------------
Pair    | 146.33     | 146.33     | 146.33     |   0.0 | 81.31
Neigh   | 22.917     | 22.917     | 22.917     |   0.0 | 12.73
Comm    | 5.632      | 5.632      | 5.632      |   0.0 |  3.13
Output  | 0.022073   | 0.022073   | 0.022073   |   0.0 |  0.01
Modify  | 4.0616     | 4.0616     | 4.0616     |   0.0 |  2.26
Other   |            | 1.01       |            |       |  0.56

Nlocal:    500 ave 500 max 500 min
Histogram: 1 0 0 0 0 0 0 0 0 0
Nghost:    1869 ave 1869 max 1869 min
Histogram: 1 0 0 0 0 0 0 0 0 0
Neighs:    19964 ave 19964 max 19964 min
Histogram: 1 0 0 0 0 0 0 0 0 0

Total # of neighbors = 19964
Ave neighs/atom = 39.928
Neighbor list builds = 25000
Dangerous builds not checked
Total wall time: 0:02:59
