LAMMPS (19 Oct 2016)
# equation of state for LJ

variable temp equal 3
variable rho  equal 0.67

units lj
atom_style atomic

lattice    fcc ${rho}
lattice    fcc 0.67
Lattice spacing in x,y,z = 1.8141 1.8141 1.8141
region box block 0 5 0 5 0 5
create_box 1 box
Created orthogonal box = (0 0 0) to (9.07051 9.07051 9.07051)
  1 by 1 by 1 MPI processor grid
create_atoms 1 box
Created 500 atoms
mass       1 1.0

pair_style lj/cut 2.5
pair_coeff 1 1 1.0 1.0 2.5

velocity   all create ${temp} 87287
velocity   all create 3 87287

neighbor   0.3 bin
neigh_modify every 20 delay 0 check no

fix        1 all nvt temp ${temp} ${temp} 100
fix        1 all nvt temp 3 ${temp} 100
fix        1 all nvt temp 3 3 100
dump       1 all custom 70000 dump_t${temp}_r${rho}.lammpstrj id type x y z
dump       1 all custom 70000 dump_t3_r${rho}.lammpstrj id type x y z
dump       1 all custom 70000 dump_t3_r0.67.lammpstrj id type x y z
thermo     2000
thermo_style  custom step press vol temp
thermo_modify flush yes

run 500000
Neighbor list info ...
  1 neighbor list requests
  update every 20 steps, delay 0 steps, check no
  max neighbors/atom: 2000, page size: 100000
  master list distance cutoff = 2.8
  ghost atom cutoff = 2.8
  binsize = 1.4 -> bins = 7 7 7
Memory usage per processor = 3.32306 Mbytes
Step Press Volume Temp 
       0   -2.9236615    746.26866            3 
    2000    3.1582975    746.26866    2.2259458 
    4000    3.5873929    746.26866    2.1481565 
    6000    3.4909573    746.26866    2.1267591 
    8000    3.5423628    746.26866    2.1530604 
   10000    3.6819247    746.26866    2.1383605 
   12000    3.1741737    746.26866     2.239658 
   14000    3.3033746    746.26866    2.2426515 
   16000    3.5431511    746.26866    2.2160365 
   18000    3.9779118    746.26866    2.1688824 
   20000    3.3556138    746.26866    2.2563469 
   22000    3.6510106    746.26866    2.2225157 
   24000    3.2169961    746.26866    2.3206057 
   26000     3.318656    746.26866    2.2993696 
   28000    3.4578513    746.26866    2.3126421 
   30000    3.3878853    746.26866    2.3501224 
   32000    3.6802156    746.26866    2.2839971 
   34000    3.7021369    746.26866    2.3214403 
   36000    4.2978437    746.26866    2.2282696 
   38000    3.4862591    746.26866    2.3792905 
   40000    3.8197642    746.26866    2.3739969 
   42000    3.9636688    746.26866    2.3556616 
   44000    4.4772597    746.26866    2.2855319 
   46000    3.7451328    746.26866    2.4398706 
   48000    3.9348908    746.26866    2.4240682 
   50000    3.9189093    746.26866    2.4559616 
   52000    4.2992456    746.26866    2.4315263 
   54000    3.9342215    746.26866    2.4551524 
   56000     3.930447    746.26866    2.4866442 
   58000    4.3227441    746.26866    2.4332568 
   60000     4.495285    746.26866    2.4091148 
   62000    4.1776175    746.26866    2.4839588 
   64000    4.4277297    746.26866    2.4663827 
   66000    4.6494286    746.26866    2.4301044 
   68000    4.5534312    746.26866    2.4935832 
   70000    4.1745671    746.26866    2.5407767 
   72000     4.161167    746.26866    2.5979371 
   74000    4.2594449    746.26866    2.5695091 
   76000    4.5228726    746.26866    2.5519813 
   78000    4.9726187    746.26866     2.487368 
   80000    4.6289957    746.26866    2.5549887 
   82000    4.3292793    746.26866    2.6526704 
   84000    4.6459661    746.26866     2.579227 
   86000    4.6608308    746.26866    2.5778906 
   88000    4.6791225    746.26866    2.6032067 
   90000    4.4560414    746.26866    2.6361831 
   92000    4.6286406    746.26866    2.6156688 
   94000    4.6855977    746.26866    2.6449017 
   96000    4.7349604    746.26866    2.6202207 
   98000    4.9268822    746.26866    2.5991652 
  100000    4.6760602    746.26866    2.6305644 
  102000    4.5766343    746.26866     2.676936 
  104000    4.5602721    746.26866    2.6648706 
  106000    4.2835302    746.26866    2.7397514 
  108000    4.1930865    746.26866    2.7515948 
  110000    4.7893231    746.26866    2.6708046 
  112000    4.9229095    746.26866    2.6350938 
  114000    4.7075102    746.26866    2.6677745 
  116000    4.8082011    746.26866     2.681565 
  118000    4.6400808    746.26866    2.7196428 
  120000    5.1073556    746.26866    2.6367084 
  122000    4.6313298    746.26866    2.6862131 
  124000    4.6181229    746.26866    2.7167596 
  126000    4.4448902    746.26866    2.7527956 
  128000    5.0226862    746.26866    2.6530354 
  130000    4.5163841    746.26866    2.7371099 
  132000    4.5674396    746.26866    2.7321603 
  134000    5.1217023    746.26866    2.6575733 
  136000    4.6696477    746.26866     2.730333 
  138000    4.6152912    746.26866    2.7224195 
  140000    4.8832088    746.26866    2.6881431 
  142000     4.878585    746.26866    2.6904662 
  144000    4.8647565    746.26866    2.7038057 
  146000    4.8443862    746.26866    2.7004828 
  148000    5.3097473    746.26866    2.6431037 
  150000    4.5534818    746.26866    2.7691773 
  152000    4.9092246    746.26866    2.7044209 
  154000     4.923347    746.26866    2.6797543 
  156000    4.9377405    746.26866    2.7038287 
  158000    4.4894895    746.26866     2.754985 
  160000    4.9801394    746.26866    2.7060339 
  162000    4.6060941    746.26866    2.7760616 
  164000     4.833585    746.26866     2.713132 
  166000     4.646664    746.26866    2.7327735 
  168000     4.706582    746.26866     2.733851 
  170000    4.6363181    746.26866    2.7282913 
  172000    4.6129251    746.26866    2.7539321 
  174000    4.6321131    746.26866    2.7599327 
  176000    4.9364997    746.26866    2.6923443 
  178000    4.7571646    746.26866    2.7673948 
  180000    4.4704781    746.26866    2.7727256 
  182000    4.8140576    746.26866    2.7208975 
  184000     5.261188    746.26866    2.6277767 
  186000    4.7426381    746.26866    2.7323129 
  188000    5.0807884    746.26866    2.6755267 
  190000    5.3223824    746.26866    2.6429152 
  192000    5.4107096    746.26866    2.6131933 
  194000    4.7199016    746.26866    2.7361357 
  196000    5.0978815    746.26866    2.7039201 
  198000    4.7404262    746.26866    2.7530407 
  200000    4.6599958    746.26866     2.734984 
  202000    4.9510787    746.26866    2.6935991 
  204000    5.2309599    746.26866     2.647059 
  206000    5.1581791    746.26866    2.6751544 
  208000    4.2298382    746.26866    2.8464389 
  210000    4.8877016    746.26866    2.7133809 
  212000    4.5025542    746.26866    2.8113245 
  214000    4.9827824    746.26866    2.7213672 
  216000    4.9211998    746.26866    2.7143303 
  218000    4.8191832    746.26866    2.7342009 
  220000    4.4157849    746.26866    2.7831233 
  222000    4.9694693    746.26866    2.7063992 
  224000    5.0343893    746.26866    2.6886271 
  226000    4.5731111    746.26866    2.7575528 
  228000    4.7527576    746.26866    2.7348576 
  230000    4.9963263    746.26866    2.6638995 
  232000    4.8426629    746.26866      2.74844 
  234000    4.3706712    746.26866    2.8101764 
  236000    4.9911772    746.26866    2.6822962 
  238000    4.4173225    746.26866     2.819287 
  240000    4.5990108    746.26866     2.800317 
  242000    4.5696787    746.26866    2.7727789 
  244000    4.6824094    746.26866    2.7365468 
  246000    4.7148318    746.26866    2.7799171 
  248000    4.7582954    746.26866    2.7332744 
  250000    4.6824233    746.26866    2.7417079 
  252000    5.2153863    746.26866    2.6431881 
  254000    4.4480836    746.26866    2.7953247 
  256000    4.8447575    746.26866    2.7210202 
  258000    5.3624462    746.26866      2.61275 
  260000    4.5600243    746.26866    2.7668256 
  262000    5.0790741    746.26866    2.6575515 
  264000    4.3793811    746.26866     2.827603 
  266000    4.9957834    746.26866    2.6782097 
  268000    4.6402127    746.26866     2.759805 
  270000     4.904798    746.26866    2.6957086 
  272000    4.2430534    746.26866    2.8572043 
  274000    4.9032213    746.26866    2.7015623 
  276000    4.9651358    746.26866    2.6992183 
  278000    5.0379976    746.26866    2.6824114 
  280000     4.897738    746.26866    2.7019417 
  282000    4.8988345    746.26866    2.7064148 
  284000    5.0260484    746.26866    2.6765298 
  286000    4.7205518    746.26866    2.7230095 
  288000    4.7959735    746.26866    2.7367828 
  290000    4.5841644    746.26866    2.7297809 
  292000    5.2888091    746.26866    2.6198347 
  294000    4.8066158    746.26866    2.7056845 
  296000    4.3547661    746.26866    2.8168274 
  298000    4.8297141    746.26866    2.7331301 
  300000    5.1293559    746.26866    2.6866513 
  302000    4.9300747    746.26866    2.6862965 
  304000    4.7224376    746.26866     2.743987 
  306000    4.6955163    746.26866    2.7304027 
  308000    5.0878228    746.26866    2.6551242 
  310000    4.3626556    746.26866     2.804718 
  312000    4.8142651    746.26866    2.7122095 
  314000    4.8295676    746.26866    2.7038798 
  316000    5.0031752    746.26866    2.6848368 
  318000    4.9013504    746.26866    2.6931272 
  320000    5.0845079    746.26866    2.6966152 
  322000     4.897476    746.26866    2.7144184 
  324000    4.8930296    746.26866    2.6952398 
  326000    5.1003428    746.26866    2.6995155 
  328000    4.8027072    746.26866    2.7419927 
  330000    4.8626808    746.26866    2.6982932 
  332000    4.9196566    746.26866    2.6940804 
  334000    4.5070821    746.26866    2.7988117 
  336000     4.856508    746.26866    2.7216543 
  338000    4.7963467    746.26866    2.7008139 
  340000    5.0664163    746.26866    2.6942019 
  342000    4.7483629    746.26866    2.7358335 
  344000    5.0641332    746.26866    2.6809175 
  346000     5.078295    746.26866    2.6651863 
  348000    4.9756504    746.26866    2.6953342 
  350000    4.7341963    746.26866    2.7294432 
  352000    5.0574458    746.26866    2.6847887 
  354000    4.7865292    746.26866    2.7326358 
  356000    4.7887506    746.26866    2.7134455 
  358000    4.7629461    746.26866    2.7203349 
  360000    4.9378062    746.26866    2.6986432 
  362000    4.8174348    746.26866      2.74712 
  364000    4.6128527    746.26866    2.7569221 
  366000    5.0232668    746.26866    2.6784581 
  368000      4.55075    746.26866    2.7773621 
  370000     5.040653    746.26866    2.6785539 
  372000    4.8316316    746.26866    2.7092333 
  374000    4.8005993    746.26866     2.703389 
  376000    4.9984256    746.26866    2.6824931 
  378000    4.5259983    746.26866    2.7884468 
  380000    4.5244895    746.26866    2.7724624 
  382000     5.123743    746.26866    2.6582529 
  384000    4.9005267    746.26866    2.7117479 
  386000    4.7384904    746.26866    2.7736036 
  388000     4.562746    746.26866    2.7484212 
  390000    4.7176458    746.26866    2.7325764 
  392000    4.4442009    746.26866    2.7729238 
  394000    4.8507556    746.26866    2.7061411 
  396000      4.39141    746.26866    2.8175838 
  398000    4.6489322    746.26866    2.7447981 
  400000     4.809229    746.26866    2.7154705 
  402000     4.957295    746.26866    2.6912213 
  404000    4.7602198    746.26866    2.7382738 
  406000    5.0143437    746.26866    2.6596611 
  408000    4.8623709    746.26866    2.6987893 
  410000    5.0672986    746.26866     2.674402 
  412000    4.5774208    746.26866    2.7769068 
  414000    4.5742119    746.26866    2.7255483 
  416000     4.663199    746.26866    2.7497112 
  418000    5.1661625    746.26866    2.6507218 
  420000    5.0595469    746.26866    2.6606451 
  422000    4.8277628    746.26866    2.7089582 
  424000    4.4849927    746.26866    2.7746652 
  426000    4.8514216    746.26866    2.7294317 
  428000    4.2877983    746.26866    2.8032527 
  430000    4.6495837    746.26866    2.7470789 
  432000     4.342859    746.26866    2.8237434 
  434000    4.9309294    746.26866      2.69761 
  436000     4.829445    746.26866     2.696633 
  438000    4.5839715    746.26866    2.7440422 
  440000    4.9420688    746.26866     2.686695 
  442000    4.6164096    746.26866    2.7598633 
  444000    4.7480674    746.26866    2.7320521 
  446000    4.8924597    746.26866    2.6987005 
  448000    4.7453738    746.26866    2.7101027 
  450000    4.6809808    746.26866    2.7348145 
  452000    4.8180914    746.26866    2.7023248 
  454000    4.7435181    746.26866     2.722742 
  456000    4.4479107    746.26866    2.7945121 
  458000    4.8283513    746.26866    2.6983288 
  460000     4.625503    746.26866    2.7351002 
  462000    4.9197459    746.26866      2.72078 
  464000    4.6718028    746.26866    2.7807828 
  466000    4.9093059    746.26866    2.7069831 
  468000    4.7991179    746.26866    2.7366508 
  470000    4.6244132    746.26866    2.7478627 
  472000    4.6820523    746.26866    2.7414618 
  474000    4.7954063    746.26866    2.7298376 
  476000    4.6423429    746.26866    2.7665399 
  478000    4.3616059    746.26866    2.7892984 
  480000    5.2382353    746.26866    2.6541814 
  482000     4.633361    746.26866    2.7340453 
  484000    4.6841691    746.26866     2.739594 
  486000    5.0008678    746.26866    2.7149216 
  488000    4.5823918    746.26866    2.7480104 
  490000    5.1558377    746.26866     2.638169 
  492000    4.5261824    746.26866    2.7568173 
  494000    4.8397747    746.26866    2.7213787 
  496000    4.4967243    746.26866    2.7626366 
  498000     4.791824    746.26866    2.6904194 
  500000    4.7762964    746.26866    2.7106831 
Loop time of 149.973 on 1 procs for 500000 steps with 500 atoms

Performance: 1440258.172 tau/day, 3333.931 timesteps/s
93.1% CPU use with 1 MPI tasks x no OpenMP threads

MPI task timing breakdown:
Section |  min time  |  avg time  |  max time  |%varavg| %total
---------------------------------------------------------------
Pair    | 119.77     | 119.77     | 119.77     |   0.0 | 79.86
Neigh   | 19.496     | 19.496     | 19.496     |   0.0 | 13.00
Comm    | 5.2952     | 5.2952     | 5.2952     |   0.0 |  3.53
Output  | 0.02186    | 0.02186    | 0.02186    |   0.0 |  0.01
Modify  | 4.3954     | 4.3954     | 4.3954     |   0.0 |  2.93
Other   |            | 0.9912     |            |       |  0.66

Nlocal:    500 ave 500 max 500 min
Histogram: 1 0 0 0 0 0 0 0 0 0
Nghost:    1585 ave 1585 max 1585 min
Histogram: 1 0 0 0 0 0 0 0 0 0
Neighs:    15160 ave 15160 max 15160 min
Histogram: 1 0 0 0 0 0 0 0 0 0

Total # of neighbors = 15160
Ave neighs/atom = 30.32
Neighbor list builds = 25000
Dangerous builds not checked
Total wall time: 0:02:29
