LAMMPS (19 Oct 2016)
# equation of state for LJ

variable temp equal 3
variable rho  equal 0.86

units lj
atom_style atomic

lattice    fcc ${rho}
lattice    fcc 0.86
Lattice spacing in x,y,z = 1.66925 1.66925 1.66925
region box block 0 5 0 5 0 5
create_box 1 box
Created orthogonal box = (0 0 0) to (8.34623 8.34623 8.34623)
  1 by 1 by 1 MPI processor grid
create_atoms 1 box
Created 500 atoms
mass       1 1.0

pair_style lj/cut 2.5
pair_coeff 1 1 1.0 1.0 2.5

velocity   all create ${temp} 87287
velocity   all create 3 87287

neighbor   0.3 bin
neigh_modify every 20 delay 0 check no

fix        1 all nvt temp ${temp} ${temp} 100
fix        1 all nvt temp 3 ${temp} 100
fix        1 all nvt temp 3 3 100
dump       1 all custom 70000 dump_t${temp}_r${rho}.lammpstrj id type x y z
dump       1 all custom 70000 dump_t3_r${rho}.lammpstrj id type x y z
dump       1 all custom 70000 dump_t3_r0.86.lammpstrj id type x y z
thermo     2000
thermo_style  custom step press vol temp
thermo_modify flush yes

run 500000
Neighbor list info ...
  1 neighbor list requests
  update every 20 steps, delay 0 steps, check no
  max neighbors/atom: 2000, page size: 100000
  master list distance cutoff = 2.8
  ghost atom cutoff = 2.8
  binsize = 1.4 -> bins = 6 6 6
Memory usage per processor = 3.32155 Mbytes
Step Press Volume Temp 
       0   -3.6016907    581.39535            3 
    2000    6.6166163    581.39535    1.5468651 
    4000    6.2491482    581.39535    1.6133495 
    6000     6.435252    581.39535    1.6493972 
    8000    6.5510336    581.39535    1.6441427 
   10000    6.5315371    581.39535    1.6730709 
   12000    6.7323684    581.39535    1.6617335 
   14000     6.810342    581.39535    1.7015018 
   16000    6.7689294    581.39535    1.7214515 
   18000    6.5355746    581.39535    1.7933739 
   20000    7.1801838    581.39535     1.736623 
   22000    7.5183092    581.39535    1.7101337 
   24000    7.1044108    581.39535     1.848522 
   26000    7.1308391    581.39535      1.86439 
   28000    7.0129075    581.39535    1.9177942 
   30000    7.4482205    581.39535    1.8838731 
   32000    7.8632536    581.39535    1.8843807 
   34000    7.8410722    581.39535    1.9254165 
   36000    8.6392786    581.39535    1.8701818 
   38000     7.735444    581.39535    2.0558114 
   40000     8.137133    581.39535    2.0361857 
   42000    8.5026811    581.39535    2.0099603 
   44000    9.0053925    581.39535    1.9750569 
   46000    8.9882798    581.39535    2.0458339 
   48000    8.7958637    581.39535    2.1176781 
   50000    8.6922744    581.39535    2.1730692 
   52000    9.2285251    581.39535    2.1220172 
   54000    8.9690642    581.39535    2.2286583 
   56000    9.1901379    581.39535    2.2166174 
   58000    9.4077295    581.39535    2.2552312 
   60000    9.6238928    581.39535    2.2806123 
   62000    8.9947658    581.39535    2.4057189 
   64000     9.597885    581.39535    2.3665173 
   66000    10.231983    581.39535    2.2928795 
   68000    10.305951    581.39535    2.3231376 
   70000      10.0156    581.39535     2.394789 
   72000    10.177713    581.39535    2.4314846 
   74000    10.609471    581.39535    2.4046511 
   76000    10.085117    581.39535    2.5230208 
   78000    10.827217    581.39535    2.4406877 
   80000     9.945616    581.39535    2.6063893 
   82000    10.386224    581.39535    2.5703329 
   84000    10.557237    581.39535    2.5835618 
   86000    10.369929    581.39535    2.6541324 
   88000    10.705469    581.39535    2.6229851 
   90000    10.425747    581.39535    2.6961243 
   92000    11.045155    581.39535    2.6404886 
   94000    11.128502    581.39535    2.6345677 
   96000    10.346979    581.39535    2.8037803 
   98000    10.833502    581.39535    2.7413587 
  100000    11.579605    581.39535    2.6409092 
  102000    11.305537    581.39535    2.7029548 
  104000    11.773714    581.39535    2.6578197 
  106000     11.65492    581.39535    2.6980611 
  108000    10.988396    581.39535     2.831422 
  110000    11.949097    581.39535     2.687322 
  112000    12.105608    581.39535    2.6452639 
  114000    11.148585    581.39535    2.8397467 
  116000    11.841744    581.39535    2.7654508 
  118000    11.720367    581.39535    2.7799125 
  120000    12.109354    581.39535    2.7446782 
  122000    11.414792    581.39535    2.8700198 
  124000    11.911828    581.39535    2.7886915 
  126000    11.987023    581.39535    2.7744336 
  128000    11.941423    581.39535    2.8051708 
  130000    11.790585    581.39535    2.8371257 
  132000     11.15214    581.39535    2.9419489 
  134000    11.998631    581.39535    2.8132303 
  136000    11.667791    581.39535    2.8730404 
  138000    11.961746    581.39535    2.8413659 
  140000    11.597897    581.39535    2.8890356 
  142000    11.593103    581.39535    2.9032359 
  144000    11.576896    581.39535    2.9169456 
  146000    11.544056    581.39535    2.9276214 
  148000    12.902661    581.39535     2.682742 
  150000    11.731167    581.39535     2.887104 
  152000    12.323289    581.39535    2.8025142 
  154000    11.717176    581.39535    2.8946382 
  156000    11.879853    581.39535    2.8737714 
  158000    12.066549    581.39535    2.8484841 
  160000    11.976761    581.39535    2.8533744 
  162000    12.683217    581.39535    2.7314349 
  164000    11.048968    581.39535    3.0024081 
  166000    11.781213    581.39535     2.867005 
  168000    12.117332    581.39535    2.8423596 
  170000    11.553886    581.39535    2.9192622 
  172000    12.403263    581.39535     2.770132 
  174000     11.67054    581.39535    2.8985508 
  176000    12.029242    581.39535    2.8595036 
  178000    11.680913    581.39535     2.936062 
  180000    11.508634    581.39535    2.9336275 
  182000    11.933103    581.39535    2.8790185 
  184000    12.193419    581.39535    2.8075592 
  186000    12.069279    581.39535    2.8320193 
  188000    11.470669    581.39535    2.9158983 
  190000    11.869854    581.39535    2.8531066 
  192000    12.068687    581.39535    2.8297269 
  194000    11.786944    581.39535    2.8859608 
  196000    12.576492    581.39535    2.7656977 
  198000    12.566827    581.39535    2.7446587 
  200000    11.942277    581.39535    2.8595361 
  202000    11.939984    581.39535    2.8473235 
  204000    11.796916    581.39535    2.8669981 
  206000    12.101939    581.39535    2.8422196 
  208000    12.418709    581.39535      2.74665 
  210000    11.873723    581.39535    2.8531811 
  212000    11.738111    581.39535    2.8719273 
  214000    11.101588    581.39535     2.973174 
  216000    12.051923    581.39535     2.815318 
  218000    12.558507    581.39535     2.721642 
  220000    11.602759    581.39535    2.8888943 
  222000     11.51048    581.39535     2.902943 
  224000    11.774665    581.39535    2.8671441 
  226000    11.778504    581.39535    2.8561019 
  228000    12.232397    581.39535     2.790648 
  230000     11.30298    581.39535     2.935805 
  232000    11.611061    581.39535     2.883234 
  234000    11.826046    581.39535    2.8396945 
  236000    11.888531    581.39535    2.8224146 
  238000    12.287113    581.39535    2.7670654 
  240000    11.626159    581.39535    2.8792845 
  242000    11.536872    581.39535    2.8726833 
  244000    11.803122    581.39535    2.8587586 
  246000    11.838372    581.39535     2.883566 
  248000    12.332951    581.39535    2.7452971 
  250000    11.814683    581.39535     2.820209 
  252000    11.503695    581.39535    2.8888161 
  254000     11.40455    581.39535    2.8891808 
  256000    11.395798    581.39535     2.910861 
  258000    11.921411    581.39535    2.8107028 
  260000    12.027097    581.39535    2.7994378 
  262000    11.490993    581.39535    2.8733988 
  264000    12.041249    581.39535    2.7956512 
  266000    11.988618    581.39535    2.8087368 
  268000    12.121334    581.39535    2.7806884 
  270000    12.000609    581.39535    2.7852421 
  272000    11.635718    581.39535    2.8911777 
  274000    11.853529    581.39535    2.8106996 
  276000    11.904371    581.39535    2.8146024 
  278000    12.212465    581.39535    2.7670077 
  280000    10.845478    581.39535    2.9776574 
  282000    12.132414    581.39535    2.7807556 
  284000    11.664607    581.39535    2.8499719 
  286000    11.665731    581.39535    2.8316801 
  288000    11.402011    581.39535    2.8888224 
  290000    12.048467    581.39535     2.798356 
  292000    12.133783    581.39535    2.7914706 
  294000    11.363733    581.39535    2.8874429 
  296000    11.976028    581.39535    2.8050688 
  298000    11.603658    581.39535    2.8791372 
  300000    10.993796    581.39535    2.9664804 
  302000    11.464899    581.39535     2.891436 
  304000     11.53286    581.39535     2.866644 
  306000    11.928606    581.39535    2.7949585 
  308000     12.06286    581.39535    2.7659374 
  310000    11.320844    581.39535    2.9047247 
  312000     12.17458    581.39535    2.7245508 
  314000    12.532052    581.39535    2.6952351 
  316000    12.154854    581.39535    2.7678809 
  318000    11.891777    581.39535    2.7982684 
  320000    11.210406    581.39535    2.8901402 
  322000    12.150945    581.39535    2.7364948 
  324000    12.145337    581.39535     2.764917 
  326000    11.890622    581.39535    2.7900955 
  328000    11.567634    581.39535    2.8445437 
  330000    12.004024    581.39535    2.7677807 
  332000     12.00372    581.39535    2.7654946 
  334000    12.063998    581.39535    2.7578261 
  336000    11.237021    581.39535    2.9169583 
  338000    11.389765    581.39535    2.8709624 
  340000    11.206865    581.39535    2.8811138 
  342000    11.943732    581.39535    2.7623442 
  344000    12.405254    581.39535    2.7135576 
  346000    11.576667    581.39535    2.8048434 
  348000    11.350809    581.39535    2.8828465 
  350000    11.472928    581.39535    2.8598857 
  352000    11.716473    581.39535    2.8196668 
  354000    12.072906    581.39535    2.7419085 
  356000     11.51218    581.39535    2.8587607 
  358000    11.315208    581.39535    2.8764624 
  360000    11.371548    581.39535    2.8819964 
  362000    11.782913    581.39535      2.80781 
  364000    11.864375    581.39535    2.7935305 
  366000     11.44132    581.39535    2.8768632 
  368000    11.451695    581.39535    2.8658091 
  370000     11.08975    581.39535    2.9347957 
  372000    11.991793    581.39535    2.7879469 
  374000    11.907504    581.39535    2.7772155 
  376000     11.84522    581.39535    2.7855176 
  378000    11.795966    581.39535    2.7769206 
  380000    11.347034    581.39535    2.8995288 
  382000    11.570311    581.39535    2.8497632 
  384000     11.62341    581.39535    2.8213198 
  386000    11.944735    581.39535    2.7510647 
  388000    11.915661    581.39535    2.7876168 
  390000    11.755709    581.39535    2.8231532 
  392000    11.435739    581.39535    2.8548129 
  394000    11.109527    581.39535     2.907484 
  396000       11.822    581.39535    2.7775147 
  398000    12.044398    581.39535    2.7559952 
  400000    11.847732    581.39535    2.7747378 
  402000    11.836465    581.39535    2.7652337 
  404000    11.457943    581.39535    2.8681005 
  406000    11.456137    581.39535     2.811371 
  408000    11.444513    581.39535    2.8415665 
  410000    12.171785    581.39535    2.7113824 
  412000    11.065317    581.39535    2.8975185 
  414000    11.947709    581.39535     2.768493 
  416000    11.271566    581.39535    2.8656542 
  418000    11.886581    581.39535    2.7895828 
  420000    11.380733    581.39535    2.8389839 
  422000    11.485548    581.39535    2.8226155 
  424000    11.383249    581.39535    2.8605147 
  426000    11.627071    581.39535    2.8219305 
  428000    12.253004    581.39535    2.6956532 
  430000    11.500597    581.39535    2.8316288 
  432000    11.516652    581.39535     2.813778 
  434000    11.412062    581.39535    2.8658157 
  436000    11.250151    581.39535     2.856897 
  438000    11.772544    581.39535     2.761873 
  440000    11.689112    581.39535    2.7671769 
  442000    11.442723    581.39535    2.8314065 
  444000    11.268984    581.39535    2.8779856 
  446000     11.40339    581.39535    2.8209549 
  448000    11.915108    581.39535     2.748529 
  450000    11.353012    581.39535    2.8495671 
  452000    11.679965    581.39535    2.8017862 
  454000    10.919852    581.39535    2.8971041 
  456000    12.671531    581.39535    2.5989918 
  458000    11.792191    581.39535    2.7546059 
  460000    11.456841    581.39535    2.8095981 
  462000    11.044649    581.39535    2.9034089 
  464000    11.197688    581.39535    2.8552713 
  466000    11.346196    581.39535    2.8549759 
  468000    12.000485    581.39535    2.7143284 
  470000    11.748888    581.39535    2.7845118 
  472000    11.449007    581.39535    2.7936633 
  474000    11.926661    581.39535    2.7308242 
  476000    11.855804    581.39535    2.7621977 
  478000    11.257087    581.39535     2.874214 
  480000    11.802174    581.39535    2.7691432 
  482000    11.727898    581.39535    2.7544802 
  484000    11.808048    581.39535    2.7637562 
  486000    11.907209    581.39535    2.7033328 
  488000    11.547968    581.39535    2.7978256 
  490000    11.381331    581.39535    2.8245623 
  492000    11.511358    581.39535     2.792506 
  494000    11.135691    581.39535    2.8656109 
  496000    11.147943    581.39535    2.8528138 
  498000    12.099616    581.39535    2.6974932 
  500000      11.5797    581.39535    2.7740288 
Loop time of 174.755 on 1 procs for 500000 steps with 500 atoms

Performance: 1236013.436 tau/day, 2861.142 timesteps/s
96.7% CPU use with 1 MPI tasks x no OpenMP threads

MPI task timing breakdown:
Section |  min time  |  avg time  |  max time  |%varavg| %total
---------------------------------------------------------------
Pair    | 141.2      | 141.2      | 141.2      |   0.0 | 80.80
Neigh   | 22.929     | 22.929     | 22.929     |   nan | 13.12
Comm    | 5.5354     | 5.5354     | 5.5354     |   0.0 |  3.17
Output  | 0.015607   | 0.015607   | 0.015607   |   0.0 |  0.01
Modify  | 4.0932     | 4.0932     | 4.0932     |   0.0 |  2.34
Other   |            | 0.9837     |            |       |  0.56

Nlocal:    500 ave 500 max 500 min
Histogram: 1 0 0 0 0 0 0 0 0 0
Nghost:    1808 ave 1808 max 1808 min
Histogram: 1 0 0 0 0 0 0 0 0 0
Neighs:    19409 ave 19409 max 19409 min
Histogram: 1 0 0 0 0 0 0 0 0 0

Total # of neighbors = 19409
Ave neighs/atom = 38.818
Neighbor list builds = 25000
Dangerous builds not checked
Total wall time: 0:02:54
