LAMMPS (19 Oct 2016)
# equation of state for LJ

variable temp equal 3
variable rho  equal 0.81

units lj
atom_style atomic

lattice    fcc ${rho}
lattice    fcc 0.81
Lattice spacing in x,y,z = 1.70291 1.70291 1.70291
region box block 0 5 0 5 0 5
create_box 1 box
Created orthogonal box = (0 0 0) to (8.51455 8.51455 8.51455)
  1 by 1 by 1 MPI processor grid
create_atoms 1 box
Created 500 atoms
mass       1 1.0

pair_style lj/cut 2.5
pair_coeff 1 1 1.0 1.0 2.5

velocity   all create ${temp} 87287
velocity   all create 3 87287

neighbor   0.3 bin
neigh_modify every 20 delay 0 check no

fix        1 all nvt temp ${temp} ${temp} 100
fix        1 all nvt temp 3 ${temp} 100
fix        1 all nvt temp 3 3 100
dump       1 all custom 70000 dump_t${temp}_r${rho}.lammpstrj id type x y z
dump       1 all custom 70000 dump_t3_r${rho}.lammpstrj id type x y z
dump       1 all custom 70000 dump_t3_r0.81.lammpstrj id type x y z
thermo     2000
thermo_style  custom step press vol temp
thermo_modify flush yes

run 500000
Neighbor list info ...
  1 neighbor list requests
  update every 20 steps, delay 0 steps, check no
  max neighbors/atom: 2000, page size: 100000
  master list distance cutoff = 2.8
  ghost atom cutoff = 2.8
  binsize = 1.4 -> bins = 7 7 7
Memory usage per processor = 3.32306 Mbytes
Step Press Volume Temp 
       0   -3.8120188    617.28395            3 
    2000     4.604738    617.28395    1.8203066 
    4000    5.2035642    617.28395    1.7390371 
    6000    5.5023503    617.28395    1.7056457 
    8000     5.467792    617.28395    1.7725786 
   10000    5.2923857    617.28395    1.8100971 
   12000    5.1571257    617.28395     1.850091 
   14000    5.6021308    617.28395    1.8140824 
   16000    5.7121576    617.28395    1.8077363 
   18000    5.1848062    617.28395    1.9526222 
   20000    5.7374539    617.28395    1.9046143 
   22000    6.2268319    617.28395     1.844833 
   24000    6.0596418    617.28395    1.9155694 
   26000    6.4783642    617.28395    1.8743126 
   28000    6.0618361    617.28395    1.9801252 
   30000     6.364412    617.28395    1.9939543 
   32000    6.5494126    617.28395    1.9764002 
   34000    6.3941507    617.28395     2.059527 
   36000    6.3698209    617.28395    2.0915784 
   38000    6.2882922    617.28395    2.1557274 
   40000    6.8071783    617.28395    2.1269596 
   42000    6.5754998    617.28395    2.1901501 
   44000    6.7021384    617.28395    2.1946143 
   46000    6.7170104    617.28395    2.2329059 
   48000    6.8502335    617.28395    2.2728818 
   50000    7.3628196    617.28395    2.2178547 
   52000    7.3330077    617.28395    2.2671462 
   54000    7.0456749    617.28395    2.3538705 
   56000    7.4891527    617.28395    2.3164024 
   58000    7.4665739    617.28395    2.3721905 
   60000    7.3521017    617.28395    2.3865346 
   62000    7.8564514    617.28395    2.3985415 
   64000    7.7013054    617.28395    2.4500853 
   66000    8.4166749    617.28395    2.3156978 
   68000    7.7002751    617.28395    2.5068359 
   70000    8.0524235    617.28395    2.4772443 
   72000    8.5251694    617.28395    2.4171138 
   74000    8.6029261    617.28395    2.4303862 
   76000    8.2756807    617.28395    2.5667882 
   78000    7.8817412    617.28395    2.6329851 
   80000    8.7333943    617.28395     2.493026 
   82000    8.5241661    617.28395     2.558084 
   84000    8.5057981    617.28395    2.6008901 
   86000    8.6634564    617.28395    2.6127024 
   88000    9.0078532    617.28395    2.5574249 
   90000    8.7539646    617.28395    2.6134792 
   92000    8.9198743    617.28395    2.6171355 
   94000    8.8766018    617.28395      2.63738 
   96000    9.0341933    617.28395    2.6466613 
   98000    9.1524692    617.28395    2.6434624 
  100000    8.3082422    617.28395    2.8111119 
  102000    8.4030819    617.28395    2.8001225 
  104000    9.5994731    617.28395    2.6113695 
  106000    8.6158436    617.28395    2.8005996 
  108000    8.7394943    617.28395    2.7884658 
  110000    9.5811049    617.28395    2.6504516 
  112000    8.9456952    617.28395    2.7635316 
  114000    9.1401649    617.28395    2.7714601 
  116000    8.6621309    617.28395    2.8664346 
  118000    9.0178536    617.28395    2.8059911 
  120000      9.47923    617.28395    2.7249539 
  122000    9.5511319    617.28395    2.7278297 
  124000    9.0737952    617.28395    2.7915196 
  126000    8.9815267    617.28395    2.8437325 
  128000     9.800135    617.28395    2.6980166 
  130000    9.8489134    617.28395    2.6908847 
  132000     8.828906    617.28395    2.8785902 
  134000    9.4452712    617.28395    2.7833593 
  136000    9.4429654    617.28395    2.7763005 
  138000    9.5606608    617.28395    2.7713979 
  140000    9.9760192    617.28395    2.6846495 
  142000    8.5521469    617.28395    2.9394284 
  144000    8.9102821    617.28395    2.8678123 
  146000    9.3220283    617.28395    2.8030637 
  148000    9.3888613    617.28395    2.8281829 
  150000    9.2978887    617.28395    2.8392695 
  152000    9.4577953    617.28395    2.8185684 
  154000    9.5933782    617.28395    2.7699895 
  156000    9.3423759    617.28395    2.8173925 
  158000    9.6167612    617.28395    2.7673079 
  160000    9.2434069    617.28395    2.8768477 
  162000    9.4220953    617.28395    2.8240313 
  164000    8.7598904    617.28395    2.9568154 
  166000    9.6661112    617.28395     2.783034 
  168000     8.936315    617.28395    2.9125862 
  170000    9.2893172    617.28395    2.8583327 
  172000    8.8447179    617.28395    2.9020066 
  174000    9.1683731    617.28395    2.8534602 
  176000    9.5219791    617.28395    2.8042637 
  178000    9.0767118    617.28395    2.8968408 
  180000    9.0569491    617.28395    2.8820802 
  182000    10.015486    617.28395    2.7192421 
  184000     9.219218    617.28395     2.825655 
  186000    8.8621875    617.28395    2.8935712 
  188000    9.7804265    617.28395    2.7392102 
  190000    9.4461668    617.28395    2.8316408 
  192000    9.7874421    617.28395    2.7534794 
  194000    9.4201974    617.28395    2.8074508 
  196000     9.718625    617.28395     2.751745 
  198000    9.6167681    617.28395    2.7802171 
  200000    8.9439637    617.28395    2.8855577 
  202000     9.269926    617.28395    2.8303369 
  204000    10.202362    617.28395    2.6620745 
  206000    9.4223531    617.28395    2.8142727 
  208000    9.6868884    617.28395    2.7526469 
  210000     9.703117    617.28395    2.7484251 
  212000    8.8039368    617.28395    2.9155022 
  214000    9.3914975    617.28395    2.7990847 
  216000    9.6321469    617.28395    2.7800202 
  218000    9.2407907    617.28395    2.8350218 
  220000    9.3862354    617.28395    2.8033987 
  222000    8.6904187    617.28395    2.9158691 
  224000    10.183113    617.28395    2.6871774 
  226000    9.2730686    617.28395    2.8154791 
  228000      9.39779    617.28395    2.8138667 
  230000    9.5519227    617.28395    2.7693464 
  232000    9.7090075    617.28395    2.7367438 
  234000    9.0835153    617.28395    2.8383135 
  236000    9.7795817    617.28395    2.7574753 
  238000    9.5997103    617.28395     2.770151 
  240000    9.6636506    617.28395    2.7722379 
  242000      8.96157    617.28395    2.8667964 
  244000    9.6648835    617.28395    2.7306831 
  246000    9.1490483    617.28395    2.8305443 
  248000    9.3632328    617.28395    2.8105475 
  250000    8.9665235    617.28395    2.8503064 
  252000    9.4166927    617.28395    2.7916658 
  254000    9.3145398    617.28395    2.8196011 
  256000    9.6491616    617.28395    2.7431129 
  258000    8.9850909    617.28395    2.8738048 
  260000    9.3409611    617.28395     2.832772 
  262000    9.5497068    617.28395    2.7683091 
  264000    9.3847331    617.28395    2.8013182 
  266000    9.4270738    617.28395    2.7818072 
  268000    9.7740373    617.28395    2.7072136 
  270000    8.7521021    617.28395     2.883272 
  272000    9.4434708    617.28395    2.7462027 
  274000    9.7284594    617.28395     2.712458 
  276000    9.6605189    617.28395    2.7520574 
  278000    9.0801542    617.28395    2.8232936 
  280000    8.9117019    617.28395    2.8720749 
  282000    9.0253938    617.28395    2.8527935 
  284000    9.2506641    617.28395    2.8176281 
  286000    9.0598043    617.28395    2.8443258 
  288000    9.6408803    617.28395    2.7407714 
  290000    9.1943139    617.28395    2.8286323 
  292000    8.8432485    617.28395    2.8602984 
  294000    9.4845992    617.28395    2.7513791 
  296000     8.928917    617.28395    2.8612632 
  298000     9.234425    617.28395    2.8056629 
  300000    9.3274339    617.28395    2.7895932 
  302000    9.3444799    617.28395    2.8019716 
  304000    8.3960564    617.28395     2.947794 
  306000      9.04845    617.28395    2.8381292 
  308000    9.0674831    617.28395     2.804723 
  310000    9.2801049    617.28395    2.7988745 
  312000    8.9303455    617.28395    2.8226168 
  314000    9.6377892    617.28395    2.7357097 
  316000    8.9780297    617.28395    2.8423333 
  318000    9.5958686    617.28395    2.7458368 
  320000    9.1748712    617.28395    2.8004739 
  322000    9.0153569    617.28395    2.8371466 
  324000     9.082181    617.28395    2.8119769 
  326000    8.9508657    617.28395    2.8674244 
  328000    9.1526191    617.28395    2.8281606 
  330000    8.9666745    617.28395    2.8365046 
  332000    9.2575292    617.28395     2.783857 
  334000    9.3959222    617.28395    2.7638896 
  336000    9.2311404    617.28395    2.7888179 
  338000    9.4772494    617.28395    2.7580823 
  340000    9.5530078    617.28395    2.7569561 
  342000    9.2548197    617.28395    2.8017169 
  344000    9.5826662    617.28395    2.7341125 
  346000    9.5799755    617.28395    2.7147859 
  348000    9.6622359    617.28395    2.7010103 
  350000    9.7830401    617.28395    2.6803981 
  352000    8.7644173    617.28395    2.8683109 
  354000    9.5169477    617.28395    2.7270419 
  356000    9.1154051    617.28395    2.8115312 
  358000    9.5534589    617.28395    2.7373075 
  360000    9.2357759    617.28395      2.76965 
  362000    8.6273003    617.28395    2.8967125 
  364000    9.2788968    617.28395    2.7602529 
  366000    9.0993687    617.28395    2.8095366 
  368000    8.9259012    617.28395    2.8313219 
  370000    9.1428137    617.28395     2.805549 
  372000    9.4228766    617.28395    2.7700838 
  374000    9.3083442    617.28395    2.7499903 
  376000    9.1813367    617.28395      2.78169 
  378000    8.7431677    617.28395    2.8684956 
  380000    8.9188844    617.28395    2.8167466 
  382000    9.6031818    617.28395    2.7209116 
  384000    9.3899243    617.28395    2.7345177 
  386000    9.1949328    617.28395    2.7843353 
  388000    9.1114072    617.28395    2.7808619 
  390000    9.1358995    617.28395    2.7762057 
  392000    9.1456998    617.28395    2.7779592 
  394000    8.7956842    617.28395    2.8340638 
  396000    8.8502485    617.28395    2.8421952 
  398000    9.1940225    617.28395    2.7862064 
  400000    9.7847659    617.28395    2.6612559 
  402000    9.0531862    617.28395    2.8110716 
  404000    9.6075365    617.28395    2.7163036 
  406000    9.1485391    617.28395    2.7655183 
  408000     9.444876    617.28395    2.7258647 
  410000    9.6779768    617.28395    2.7017618 
  412000    9.5233192    617.28395    2.7178017 
  414000    9.0919355    617.28395    2.8038817 
  416000    9.0363291    617.28395    2.7950987 
  418000    9.2157682    617.28395    2.7848148 
  420000    8.8033743    617.28395    2.8538593 
  422000    9.5052731    617.28395    2.7264954 
  424000    9.8519389    617.28395    2.6617503 
  426000    9.6470812    617.28395     2.685101 
  428000    8.7292438    617.28395    2.8555476 
  430000    9.2556664    617.28395    2.7727477 
  432000     8.901595    617.28395    2.8260285 
  434000    8.9846422    617.28395    2.8196164 
  436000    9.4109394    617.28395      2.73259 
  438000    9.1583377    617.28395    2.7906071 
  440000    9.1811519    617.28395      2.77476 
  442000    8.7855471    617.28395    2.8352323 
  444000    9.2742543    617.28395      2.75878 
  446000    9.0626765    617.28395    2.7953452 
  448000    9.2200854    617.28395    2.7570143 
  450000    9.6174018    617.28395    2.6860416 
  452000    9.4203914    617.28395    2.7356883 
  454000    9.7176756    617.28395    2.6503628 
  456000     9.566356    617.28395    2.7033456 
  458000    9.3651924    617.28395    2.7612111 
  460000    9.1409133    617.28395    2.7771489 
  462000    8.9411276    617.28395    2.8412528 
  464000     8.626178    617.28395    2.8880308 
  466000    9.4267845    617.28395    2.7307909 
  468000    8.8589637    617.28395    2.8167452 
  470000    9.1414792    617.28395    2.7671766 
  472000    9.5282544    617.28395    2.7188002 
  474000     8.905463    617.28395    2.8013861 
  476000    9.0413546    617.28395     2.790269 
  478000    9.2518078    617.28395    2.7467571 
  480000    8.7432414    617.28395    2.8314964 
  482000    9.6886346    617.28395    2.6585248 
  484000    9.3570303    617.28395    2.7436462 
  486000    9.1477192    617.28395    2.7947428 
  488000    9.2143961    617.28395    2.7494057 
  490000    9.3941029    617.28395     2.702033 
  492000    10.043106    617.28395    2.6052057 
  494000    9.5134816    617.28395    2.6989148 
  496000    8.5165224    617.28395    2.8663065 
  498000     9.134721    617.28395    2.7669782 
  500000    9.5705648    617.28395    2.6880883 
Loop time of 162.325 on 1 procs for 500000 steps with 500 atoms

Performance: 1330660.004 tau/day, 3080.231 timesteps/s
96.6% CPU use with 1 MPI tasks x no OpenMP threads

MPI task timing breakdown:
Section |  min time  |  avg time  |  max time  |%varavg| %total
---------------------------------------------------------------
Pair    | 133.03     | 133.03     | 133.03     |   0.0 | 81.95
Neigh   | 18.928     | 18.928     | 18.928     |   0.0 | 11.66
Comm    | 5.3443     | 5.3443     | 5.3443     |   0.0 |  3.29
Output  | 0.024895   | 0.024895   | 0.024895   |   0.0 |  0.02
Modify  | 4.0396     | 4.0396     | 4.0396     |   0.0 |  2.49
Other   |            | 0.9562     |            |       |  0.59

Nlocal:    500 ave 500 max 500 min
Histogram: 1 0 0 0 0 0 0 0 0 0
Nghost:    1777 ave 1777 max 1777 min
Histogram: 1 0 0 0 0 0 0 0 0 0
Neighs:    18270 ave 18270 max 18270 min
Histogram: 1 0 0 0 0 0 0 0 0 0

Total # of neighbors = 18270
Ave neighs/atom = 36.54
Neighbor list builds = 25000
Dangerous builds not checked
Total wall time: 0:02:42
