LAMMPS (19 Oct 2016)
# equation of state for LJ

variable temp equal 3
variable rho  equal 0.85

units lj
atom_style atomic

lattice    fcc ${rho}
lattice    fcc 0.85
Lattice spacing in x,y,z = 1.67577 1.67577 1.67577
region box block 0 5 0 5 0 5
create_box 1 box
Created orthogonal box = (0 0 0) to (8.37884 8.37884 8.37884)
  1 by 1 by 1 MPI processor grid
create_atoms 1 box
Created 500 atoms
mass       1 1.0

pair_style lj/cut 2.5
pair_coeff 1 1 1.0 1.0 2.5

velocity   all create ${temp} 87287
velocity   all create 3 87287

neighbor   0.3 bin
neigh_modify every 20 delay 0 check no

fix        1 all nvt temp ${temp} ${temp} 100
fix        1 all nvt temp 3 ${temp} 100
fix        1 all nvt temp 3 3 100
dump       1 all custom 70000 dump_t${temp}_r${rho}.lammpstrj id type x y z
dump       1 all custom 70000 dump_t3_r${rho}.lammpstrj id type x y z
dump       1 all custom 70000 dump_t3_r0.85.lammpstrj id type x y z
thermo     2000
thermo_style  custom step press vol temp
thermo_modify flush yes

run 500000
Neighbor list info ...
  1 neighbor list requests
  update every 20 steps, delay 0 steps, check no
  max neighbors/atom: 2000, page size: 100000
  master list distance cutoff = 2.8
  ghost atom cutoff = 2.8
  binsize = 1.4 -> bins = 6 6 6
Memory usage per processor = 3.32155 Mbytes
Step Press Volume Temp 
       0   -3.6734249    588.23529            3 
    2000    5.9704066    588.23529    1.6336084 
    4000    5.9396366    588.23529    1.6313099 
    6000    6.0937814    588.23529    1.6583453 
    8000    6.7503478    588.23529    1.5923339 
   10000    6.3210265    588.23529    1.6762911 
   12000    6.1693187    588.23529    1.7458214 
   14000    6.5566983    588.23529    1.7191802 
   16000    6.1308364    588.23529    1.8088925 
   18000    6.9588875    588.23529      1.69167 
   20000    6.4855471    588.23529    1.8155897 
   22000      6.70505    588.23529    1.8085759 
   24000    6.5475276    588.23529    1.8994809 
   26000    6.8294686    588.23529    1.8919361 
   28000    7.2597136    588.23529     1.859224 
   30000    7.9700465    588.23529    1.7870956 
   32000    7.3739944    588.23529    1.9401509 
   34000    7.8451609    588.23529    1.9224154 
   36000    7.7787606    588.23529    1.9598393 
   38000    7.6888739    588.23529    2.0262352 
   40000    7.7529722    588.23529    2.0590846 
   42000    7.5691473    588.23529    2.1290081 
   44000    7.9984648    588.23529    2.0979334 
   46000    8.5788057    588.23529    2.0619324 
   48000    9.0122664    588.23529    2.0341837 
   50000    8.8074554    588.23529    2.1278524 
   52000    8.8534304    588.23529    2.1747894 
   54000    8.6784561    588.23529    2.2318407 
   56000    8.4909582    588.23529    2.3037568 
   58000     8.715103    588.23529    2.3164461 
   60000    8.6906146    588.23529    2.3611598 
   62000    9.0270965    588.23529    2.3385312 
   64000    9.0727847    588.23529    2.3819689 
   66000    9.2546339    588.23529    2.3891394 
   68000    9.6435115    588.23529    2.3804709 
   70000    9.6374491    588.23529    2.4018457 
   72000    9.3312889    588.23529    2.4891467 
   74000    9.9636403    588.23529    2.4297619 
   76000    10.473905    588.23529    2.4037815 
   78000    9.8380708    588.23529    2.5135726 
   80000    10.462703    588.23529    2.4545758 
   82000    10.127122    588.23529    2.5453665 
   84000    10.583009    588.23529    2.5061534 
   86000    10.487005    588.23529    2.5449696 
   88000    10.304768    588.23529    2.6108216 
   90000    10.028703    588.23529    2.6887698 
   92000    10.235721    588.23529    2.7052129 
   94000    10.895354    588.23529    2.6176497 
   96000    10.807146    588.23529    2.6281269 
   98000    11.023414    588.23529    2.6387117 
  100000    10.486987    588.23529    2.7580533 
  102000    10.579583    588.23529     2.746676 
  104000    11.530761    588.23529    2.5821813 
  106000    10.578345    588.23529    2.7788004 
  108000    11.474995    588.23529    2.6794754 
  110000    11.205085    588.23529    2.7154936 
  112000    11.582081    588.23529    2.6864923 
  114000    11.229798    588.23529    2.7445974 
  116000    11.216211    588.23529    2.7315504 
  118000     10.56273    588.23529    2.8757339 
  120000    10.680975    588.23529    2.8778372 
  122000    10.666261    588.23529    2.8788273 
  124000     11.13192    588.23529    2.8179426 
  126000    11.051144    588.23529      2.85518 
  128000    11.109718    588.23529    2.8460173 
  130000    10.754077    588.23529    2.9363814 
  132000    11.545207    588.23529    2.7808452 
  134000    11.467682    588.23529    2.7749152 
  136000    11.839167    588.23529    2.7696618 
  138000    10.963023    588.23529    2.9032069 
  140000    10.732668    588.23529    2.9548048 
  142000    11.696521    588.23529    2.8002616 
  144000    11.530811    588.23529    2.8193077 
  146000    11.295799    588.23529    2.8467128 
  148000    10.668355    588.23529    2.9661439 
  150000    11.291783    588.23529    2.8592773 
  152000    11.991262    588.23529    2.7456374 
  154000    11.389541    588.23529    2.8366831 
  156000    11.415584    588.23529    2.8448282 
  158000    11.087576    588.23529    2.8969582 
  160000    10.632577    588.23529    2.9659912 
  162000    11.419048    588.23529    2.8629993 
  164000    11.805704    588.23529    2.7917951 
  166000    11.621405    588.23529      2.82447 
  168000    11.367308    588.23529    2.8526509 
  170000    11.202809    588.23529    2.8802973 
  172000    11.195926    588.23529    2.8686253 
  174000    10.779842    588.23529    2.9700802 
  176000    10.808183    588.23529    2.9366794 
  178000     11.43546    588.23529    2.8334983 
  180000    10.848673    588.23529    2.9486764 
  182000    11.930527    588.23529     2.758229 
  184000    11.740303    588.23529    2.7749546 
  186000    10.885354    588.23529    2.9319196 
  188000       11.132    588.23529    2.8730899 
  190000    11.697317    588.23529     2.774017 
  192000     10.90151    588.23529     2.917298 
  194000    11.202582    588.23529    2.8676394 
  196000    11.727069    588.23529    2.8006206 
  198000    11.518766    588.23529    2.7930477 
  200000    11.832538    588.23529    2.7684915 
  202000    11.043819    588.23529    2.8809374 
  204000    11.531137    588.23529    2.8207563 
  206000     11.67411    588.23529    2.7810225 
  208000    11.522627    588.23529    2.8381383 
  210000    11.645648    588.23529     2.786851 
  212000    11.074732    588.23529    2.8785767 
  214000    11.152735    588.23529    2.8756931 
  216000    11.122918    588.23529     2.887223 
  218000    11.243395    588.23529    2.8659807 
  220000    11.370139    588.23529    2.8379224 
  222000     11.59021    588.23529     2.783368 
  224000    11.386924    588.23529    2.8472154 
  226000    11.433552    588.23529    2.8160001 
  228000     11.11708    588.23529    2.8750666 
  230000    10.644657    588.23529    2.9248298 
  232000    11.105456    588.23529     2.887807 
  234000    11.669324    588.23529    2.7808446 
  236000    11.631966    588.23529    2.8042254 
  238000     11.37638    588.23529    2.8222295 
  240000    11.259768    588.23529    2.8439358 
  242000    10.884951    588.23529    2.8966356 
  244000    11.227293    588.23529    2.8346919 
  246000    11.035338    588.23529    2.9085868 
  248000    11.352863    588.23529    2.8480242 
  250000    11.641517    588.23529    2.7576969 
  252000    10.980717    588.23529     2.902412 
  254000    11.420491    588.23529    2.7991521 
  256000     11.06518    588.23529    2.8572217 
  258000    11.286567    588.23529    2.8266195 
  260000    10.957538    588.23529    2.8929796 
  262000    11.856335    588.23529    2.7313547 
  264000    11.755605    588.23529     2.732804 
  266000    11.437251    588.23529    2.8105728 
  268000    11.193313    588.23529    2.8271961 
  270000     10.91939    588.23529    2.8938763 
  272000     11.43368    588.23529    2.8108019 
  274000    11.563127    588.23529    2.7818116 
  276000    11.459185    588.23529    2.8115994 
  278000    11.418599    588.23529    2.8460141 
  280000    11.390134    588.23529     2.810778 
  282000    11.632889    588.23529    2.7541403 
  284000    11.522765    588.23529    2.7724987 
  286000     11.06323    588.23529    2.8820876 
  288000    11.468469    588.23529    2.7920184 
  290000     11.23591    588.23529    2.8267571 
  292000    11.145374    588.23529    2.8573644 
  294000    11.062802    588.23529    2.8500262 
  296000    11.233171    588.23529    2.8106057 
  298000    11.396515    588.23529    2.8117969 
  300000     11.18751    588.23529    2.8350805 
  302000    11.008792    588.23529    2.8573119 
  304000    11.180277    588.23529     2.835746 
  306000    10.912134    588.23529    2.8723089 
  308000    11.824762    588.23529    2.7044397 
  310000    11.217531    588.23529    2.8141286 
  312000    11.042963    588.23529     2.874231 
  314000    11.254934    588.23529    2.8144762 
  316000    12.005601    588.23529    2.6851784 
  318000    11.312668    588.23529    2.7964726 
  320000     11.36679    588.23529    2.8078315 
  322000    12.112784    588.23529     2.660936 
  324000    11.896462    588.23529    2.7160647 
  326000    11.779707    588.23529    2.7205489 
  328000    11.166715    588.23529    2.8241414 
  330000    10.984211    588.23529    2.8394735 
  332000    11.067642    588.23529    2.8310454 
  334000     11.16991    588.23529    2.8277326 
  336000    11.575179    588.23529    2.7295125 
  338000    10.663823    588.23529    2.9048514 
  340000    11.346024    588.23529    2.7740716 
  342000    10.947231    588.23529    2.8517722 
  344000    10.867552    588.23529    2.8925141 
  346000    10.982424    588.23529    2.8481521 
  348000    11.061295    588.23529    2.8196982 
  350000    11.131401    588.23529    2.8233147 
  352000    11.063374    588.23529    2.8452594 
  354000    10.937708    588.23529    2.8616737 
  356000    11.330611    588.23529    2.7736473 
  358000    10.842223    588.23529    2.8433395 
  360000    10.955006    588.23529     2.838731 
  362000     11.67527    588.23529    2.7255925 
  364000    11.165127    588.23529    2.8004765 
  366000    11.004065    588.23529     2.808912 
  368000    11.004237    588.23529    2.8251884 
  370000    10.694833    588.23529    2.8590719 
  372000    11.285341    588.23529    2.7886185 
  374000    10.564112    588.23529    2.9087277 
  376000    11.613649    588.23529    2.7270883 
  378000    11.253442    588.23529    2.7783028 
  380000      10.9553    588.23529    2.8310958 
  382000    10.869691    588.23529     2.869119 
  384000    11.308906    588.23529    2.7877982 
  386000    10.827285    588.23529    2.8540024 
  388000    10.737618    588.23529    2.8608508 
  390000    11.532913    588.23529    2.7220975 
  392000     10.51473    588.23529    2.8907214 
  394000    11.119883    588.23529    2.7929063 
  396000    10.274935    588.23529    2.9583861 
  398000    11.622989    588.23529    2.7305156 
  400000    10.950161    588.23529     2.825644 
  402000    10.895283    588.23529     2.840678 
  404000    11.207804    588.23529    2.7951036 
  406000    11.476891    588.23529    2.7420267 
  408000    11.032781    588.23529    2.8100762 
  410000     11.14371    588.23529    2.8000918 
  412000     11.58863    588.23529    2.7229973 
  414000    11.200235    588.23529    2.7869146 
  416000    10.871744    588.23529    2.8482169 
  418000    10.606283    588.23529    2.8806373 
  420000    11.377088    588.23529    2.7392334 
  422000    10.890185    588.23529    2.8336896 
  424000    11.257031    588.23529    2.7464124 
  426000    10.968882    588.23529    2.8232204 
  428000    10.897658    588.23529    2.8140839 
  430000    11.367432    588.23529    2.7473988 
  432000    10.925864    588.23529    2.8245225 
  434000    10.955637    588.23529    2.8224788 
  436000    11.499678    588.23529    2.7292078 
  438000     11.07939    588.23529    2.7895031 
  440000    10.883961    588.23529    2.8220386 
  442000    10.727491    588.23529    2.8520973 
  444000    11.520896    588.23529    2.7145629 
  446000    11.972768    588.23529     2.652251 
  448000    10.844468    588.23529    2.8125175 
  450000    11.534574    588.23529    2.7048131 
  452000    10.789596    588.23529    2.8409061 
  454000     11.33557    588.23529    2.7535574 
  456000    10.934905    588.23529    2.8063851 
  458000    10.291829    588.23529    2.9306376 
  460000    11.586744    588.23529    2.6799011 
  462000    11.042007    588.23529    2.7806987 
  464000    11.238428    588.23529    2.7564177 
  466000    10.849236    588.23529     2.819916 
  468000    11.566228    588.23529    2.6997739 
  470000     10.89894    588.23529    2.8361515 
  472000    10.756326    588.23529    2.8182434 
  474000    10.895361    588.23529    2.8119063 
  476000    11.180509    588.23529    2.7728427 
  478000    10.836984    588.23529    2.8256322 
  480000    11.045315    588.23529    2.7840378 
  482000    11.113155    588.23529    2.7831095 
  484000    10.831041    588.23529     2.812133 
  486000    11.048743    588.23529    2.7705424 
  488000    11.447038    588.23529    2.7122923 
  490000    10.759571    588.23529    2.8142842 
  492000    10.750052    588.23529    2.8258693 
  494000    10.772828    588.23529    2.7943673 
  496000    10.578893    588.23529    2.8456846 
  498000    10.871536    588.23529    2.7909255 
  500000    11.192953    588.23529    2.7600071 
Loop time of 170.966 on 1 procs for 500000 steps with 500 atoms

Performance: 1263410.437 tau/day, 2924.561 timesteps/s
96.5% CPU use with 1 MPI tasks x no OpenMP threads

MPI task timing breakdown:
Section |  min time  |  avg time  |  max time  |%varavg| %total
---------------------------------------------------------------
Pair    | 137.66     | 137.66     | 137.66     |   0.0 | 80.52
Neigh   | 22.671     | 22.671     | 22.671     |   nan | 13.26
Comm    | 5.5022     | 5.5022     | 5.5022     |   0.0 |  3.22
Output  | 0.013893   | 0.013893   | 0.013893   |   0.0 |  0.01
Modify  | 4.0901     | 4.0901     | 4.0901     |   0.0 |  2.39
Other   |            | 1.024      |            |       |  0.60

Nlocal:    500 ave 500 max 500 min
Histogram: 1 0 0 0 0 0 0 0 0 0
Nghost:    1807 ave 1807 max 1807 min
Histogram: 1 0 0 0 0 0 0 0 0 0
Neighs:    19140 ave 19140 max 19140 min
Histogram: 1 0 0 0 0 0 0 0 0 0

Total # of neighbors = 19140
Ave neighs/atom = 38.28
Neighbor list builds = 25000
Dangerous builds not checked
Total wall time: 0:02:50
