LAMMPS (19 Oct 2016)
# equation of state for LJ

variable temp equal 3
variable rho  equal 0.83

units lj
atom_style atomic

lattice    fcc ${rho}
lattice    fcc 0.83
Lattice spacing in x,y,z = 1.68912 1.68912 1.68912
region box block 0 5 0 5 0 5
create_box 1 box
Created orthogonal box = (0 0 0) to (8.4456 8.4456 8.4456)
  1 by 1 by 1 MPI processor grid
create_atoms 1 box
Created 500 atoms
mass       1 1.0

pair_style lj/cut 2.5
pair_coeff 1 1 1.0 1.0 2.5

velocity   all create ${temp} 87287
velocity   all create 3 87287

neighbor   0.3 bin
neigh_modify every 20 delay 0 check no

fix        1 all nvt temp ${temp} ${temp} 100
fix        1 all nvt temp 3 ${temp} 100
fix        1 all nvt temp 3 3 100
dump       1 all custom 70000 dump_t${temp}_r${rho}.lammpstrj id type x y z
dump       1 all custom 70000 dump_t3_r${rho}.lammpstrj id type x y z
dump       1 all custom 70000 dump_t3_r0.83.lammpstrj id type x y z
thermo     2000
thermo_style  custom step press vol temp
thermo_modify flush yes

run 500000
Neighbor list info ...
  1 neighbor list requests
  update every 20 steps, delay 0 steps, check no
  max neighbors/atom: 2000, page size: 100000
  master list distance cutoff = 2.8
  ghost atom cutoff = 2.8
  binsize = 1.4 -> bins = 7 7 7
Memory usage per processor = 3.32306 Mbytes
Step Press Volume Temp 
       0   -3.7706802    602.40964            3 
    2000     5.242663    602.40964    1.7230231 
    4000    5.4607818    602.40964    1.7086794 
    6000    5.2446206    602.40964    1.7698018 
    8000    5.7519981    602.40964    1.7294864 
   10000    5.7390289    602.40964    1.7725008 
   12000    5.6505719    602.40964    1.8054258 
   14000    5.5216666    602.40964    1.8638372 
   16000    6.3066227    602.40964     1.758512 
   18000    6.0411876    602.40964     1.840328 
   20000    6.4721639    602.40964    1.8087897 
   22000    6.2520899    602.40964     1.871217 
   24000    6.8811526    602.40964     1.811709 
   26000    6.0024468    602.40964    1.9938658 
   28000    6.4624367    602.40964    1.9491602 
   30000    6.3302245    602.40964    2.0466517 
   32000    6.5743098    602.40964    2.0193536 
   34000    6.6892169    602.40964    2.0657186 
   36000    7.1471083    602.40964     2.016751 
   38000    6.5550693    602.40964    2.1662679 
   40000    7.4547617    602.40964    2.0566555 
   42000    7.3710749    602.40964     2.110308 
   44000    7.5256566    602.40964    2.1318992 
   46000     7.957585    602.40964    2.0903401 
   48000    8.2454391    602.40964    2.1014938 
   50000    7.7849907    602.40964    2.2128032 
   52000    8.1202261    602.40964    2.1735483 
   54000    8.5719992    602.40964    2.1638082 
   56000    8.2431068    602.40964    2.2960957 
   58000    8.0671323    602.40964    2.3318021 
   60000    8.2133599    602.40964    2.3520009 
   62000    8.6107696    602.40964    2.3158882 
   64000    8.4083131    602.40964     2.398748 
   66000    9.0181971    602.40964    2.3465494 
   68000    8.1999408    602.40964    2.5126853 
   70000    8.3688205    602.40964    2.5177254 
   72000    8.9461865    602.40964    2.4726508 
   74000    8.5356548    602.40964    2.5720799 
   76000    9.1544971    602.40964    2.4795971 
   78000    9.3702967    602.40964    2.5109051 
   80000    9.7253108    602.40964    2.4354439 
   82000    8.9054009    602.40964    2.6083316 
   84000    9.8413881    602.40964    2.5122958 
   86000    9.1477135    602.40964    2.6490118 
   88000    9.4239626    602.40964    2.6178809 
   90000    9.4497022    602.40964    2.6378549 
   92000    9.7310411    602.40964    2.6055997 
   94000     10.20469    602.40964     2.571613 
   96000    9.7025477    602.40964    2.6773764 
   98000    9.4818596    602.40964    2.7418341 
  100000    10.284794    602.40964    2.6303893 
  102000    9.2391011    602.40964    2.8219828 
  104000    9.6967822    602.40964    2.7531917 
  106000    9.7969105    602.40964     2.750494 
  108000    9.9382178    602.40964    2.7783158 
  110000    9.4842956    602.40964    2.8391529 
  112000     10.16532    602.40964    2.7395435 
  114000    9.9447766    602.40964    2.7902405 
  116000    10.541193    602.40964    2.6895058 
  118000    10.030209    602.40964    2.8042941 
  120000    10.885449    602.40964    2.6512489 
  122000    10.539133    602.40964    2.7279775 
  124000    10.059783    602.40964    2.8319708 
  126000    10.005049    602.40964    2.8461207 
  128000    10.635786    602.40964    2.7516469 
  130000    10.339665    602.40964    2.7855723 
  132000    10.146872    602.40964    2.8099422 
  134000    10.079624    602.40964    2.8661831 
  136000    10.124082    602.40964    2.8480138 
  138000    10.112728    602.40964     2.851962 
  140000    10.201723    602.40964    2.8398889 
  142000    10.169221    602.40964    2.8676964 
  144000    10.779184    602.40964    2.7644632 
  146000    10.579757    602.40964    2.8034838 
  148000    10.359688    602.40964    2.8321547 
  150000    10.517989    602.40964    2.8200625 
  152000    10.595624    602.40964    2.7695235 
  154000    9.9507616    602.40964    2.8990704 
  156000    10.220731    602.40964    2.8244731 
  158000    9.6553822    602.40964    2.9374143 
  160000    10.344169    602.40964     2.843504 
  162000     10.63814    602.40964     2.792851 
  164000    10.106313    602.40964     2.886738 
  166000    10.017802    602.40964    2.8905803 
  168000    9.5179672    602.40964    2.9839017 
  170000     10.33069    602.40964    2.8293732 
  172000    10.636829    602.40964     2.798714 
  174000    10.248454    602.40964    2.8349982 
  176000    9.4918528    602.40964    2.9650889 
  178000    9.9816666    602.40964    2.9003453 
  180000    10.234629    602.40964    2.8607324 
  182000    10.647905    602.40964    2.7870477 
  184000    10.912057    602.40964     2.729592 
  186000    9.6770059    602.40964     2.922232 
  188000     9.878457    602.40964    2.8944312 
  190000    10.449468    602.40964    2.7892915 
  192000      9.71427    602.40964     2.923131 
  194000    10.079808    602.40964    2.8748224 
  196000    10.453694    602.40964    2.8000342 
  198000    10.339154    602.40964    2.8208301 
  200000    10.705331    602.40964    2.7728643 
  202000    10.313114    602.40964    2.8358473 
  204000    10.559855    602.40964    2.7864437 
  206000     10.55419    602.40964    2.7712372 
  208000     10.14691    602.40964    2.8478966 
  210000    10.350846    602.40964    2.8106669 
  212000    10.587662    602.40964    2.7882643 
  214000    9.9189967    602.40964    2.8894816 
  216000     9.519714    602.40964    2.9446169 
  218000     9.869716    602.40964    2.8925408 
  220000    10.287045    602.40964    2.8322491 
  222000     10.12669    602.40964     2.847987 
  224000    10.520429    602.40964    2.8017205 
  226000    10.242781    602.40964    2.8608606 
  228000    10.344155    602.40964    2.8196157 
  230000     10.26586    602.40964    2.8331502 
  232000    10.383812    602.40964    2.8268959 
  234000    10.155016    602.40964    2.8672227 
  236000    10.257442    602.40964    2.8244528 
  238000    10.108643    602.40964    2.8608608 
  240000    10.522831    602.40964    2.7956309 
  242000    9.7012372    602.40964    2.9085894 
  244000    9.8534142    602.40964    2.8967798 
  246000     10.32608    602.40964    2.8081191 
  248000    10.036327    602.40964    2.8558481 
  250000    10.540852    602.40964    2.7731335 
  252000    10.765977    602.40964    2.7257971 
  254000    10.720264    602.40964    2.7668012 
  256000    9.8767741    602.40964     2.893047 
  258000    9.8055885    602.40964    2.9286986 
  260000    9.6318739    602.40964    2.9121785 
  262000     10.07617    602.40964    2.8420291 
  264000    9.7721743    602.40964    2.9202561 
  266000    10.399076    602.40964    2.8259313 
  268000     10.44813    602.40964    2.7936388 
  270000    10.208925    602.40964     2.831465 
  272000    11.070793    602.40964    2.6825189 
  274000    9.8480232    602.40964    2.8903271 
  276000    10.044297    602.40964    2.8575776 
  278000    10.436963    602.40964     2.793897 
  280000    10.301708    602.40964    2.7948678 
  282000    9.8563677    602.40964    2.9058951 
  284000    10.438442    602.40964    2.8046879 
  286000    9.9193011    602.40964    2.8579745 
  288000    9.7470522    602.40964    2.8902342 
  290000    9.5476022    602.40964    2.9069696 
  292000    10.398521    602.40964    2.7777918 
  294000    10.761817    602.40964    2.7046353 
  296000    10.688106    602.40964    2.7534514 
  298000    10.323876    602.40964    2.7812293 
  300000    10.402083    602.40964    2.7734504 
  302000     10.16046    602.40964    2.8156891 
  304000    9.9201047    602.40964    2.8577845 
  306000    10.804088    602.40964    2.7067035 
  308000       10.819    602.40964    2.6986996 
  310000    10.362158    602.40964     2.788023 
  312000    10.196671    602.40964    2.7881728 
  314000     9.854423    602.40964    2.8620438 
  316000    9.7575543    602.40964    2.8800385 
  318000     10.44957    602.40964      2.76375 
  320000    9.9535421    602.40964      2.86778 
  322000    10.100488    602.40964    2.8159747 
  324000    10.248255    602.40964    2.8111028 
  326000    10.270016    602.40964    2.7971019 
  328000    10.279551    602.40964    2.8011075 
  330000    10.829821    602.40964    2.6863209 
  332000    10.079009    602.40964    2.8205304 
  334000    10.777111    602.40964     2.727262 
  336000     10.00344    602.40964    2.8203293 
  338000    9.9367377    602.40964    2.8343274 
  340000    10.172367    602.40964    2.8016417 
  342000    9.8620349    602.40964    2.8093333 
  344000    10.361578    602.40964    2.7541445 
  346000    10.055449    602.40964    2.8044603 
  348000    10.474558    602.40964    2.7568041 
  350000    10.215094    602.40964    2.7726873 
  352000      10.1636    602.40964    2.7957552 
  354000    9.9168136    602.40964    2.8298882 
  356000    10.101867    602.40964     2.799864 
  358000    9.5381254    602.40964    2.8959983 
  360000    10.019634    602.40964    2.8231409 
  362000    9.9030446    602.40964    2.8426367 
  364000    10.824856    602.40964      2.69091 
  366000    10.657345    602.40964    2.7236241 
  368000    10.015433    602.40964    2.8100115 
  370000    10.326191    602.40964    2.7484152 
  372000    10.496861    602.40964    2.7291729 
  374000    10.680997    602.40964    2.7268371 
  376000    9.7370447    602.40964    2.8797938 
  378000    10.577164    602.40964    2.7041046 
  380000    9.6126777    602.40964    2.8802231 
  382000    10.070778    602.40964    2.7858636 
  384000    10.088277    602.40964    2.7902061 
  386000    9.8271294    602.40964    2.8292315 
  388000    10.038952    602.40964    2.7992259 
  390000    10.183645    602.40964    2.7824935 
  392000    9.6980554    602.40964    2.8568712 
  394000    10.385682    602.40964     2.731494 
  396000    10.183519    602.40964     2.776772 
  398000    10.054231    602.40964    2.8336305 
  400000    9.9456755    602.40964    2.8105781 
  402000    10.163137    602.40964    2.7533735 
  404000    10.494068    602.40964    2.7366029 
  406000    10.295301    602.40964    2.7587538 
  408000    9.8688799    602.40964    2.7927368 
  410000    10.724715    602.40964    2.7111511 
  412000    10.292585    602.40964    2.7564449 
  414000    9.3688077    602.40964    2.9052371 
  416000     9.625314    602.40964    2.8497663 
  418000    9.6106218    602.40964    2.8521991 
  420000    10.276706    602.40964    2.7692287 
  422000    10.238293    602.40964    2.7669583 
  424000    10.264142    602.40964    2.7413962 
  426000    10.113783    602.40964    2.8003123 
  428000     10.14397    602.40964    2.7650374 
  430000     9.698474    602.40964    2.8611099 
  432000     9.848287    602.40964    2.8248494 
  434000    10.825168    602.40964    2.6764665 
  436000    10.205964    602.40964    2.7498959 
  438000    10.006116    602.40964    2.7779635 
  440000    9.7705701    602.40964    2.8352642 
  442000    9.9312409    602.40964    2.7991514 
  444000    10.253899    602.40964    2.7521488 
  446000    10.578753    602.40964    2.6987154 
  448000    10.276059    602.40964    2.7437591 
  450000    10.039352    602.40964    2.7945856 
  452000    9.3505413    602.40964     2.897986 
  454000    10.321366    602.40964    2.7424721 
  456000    9.8173958    602.40964     2.805007 
  458000    10.613064    602.40964    2.6860139 
  460000    10.275569    602.40964     2.774326 
  462000    10.138282    602.40964    2.7885054 
  464000    9.7967921    602.40964    2.8499228 
  466000     10.73315    602.40964    2.6785434 
  468000    9.8493271    602.40964    2.8260018 
  470000    10.784699    602.40964    2.6535756 
  472000    9.6325075    602.40964    2.8396365 
  474000    10.361965    602.40964    2.7217216 
  476000    9.8858027    602.40964    2.8108239 
  478000    10.542367    602.40964    2.6755332 
  480000     9.885681    602.40964    2.7812506 
  482000    9.0098108    602.40964     2.963534 
  484000    10.174587    602.40964    2.7493219 
  486000    9.9240456    602.40964    2.7857737 
  488000    10.195629    602.40964    2.7708806 
  490000    10.041707    602.40964    2.7778572 
  492000    9.2886187    602.40964    2.8728644 
  494000    10.126259    602.40964    2.7694701 
  496000    10.397365    602.40964    2.7227636 
  498000    10.257375    602.40964     2.748225 
  500000    9.8436761    602.40964    2.8172938 
Loop time of 180.903 on 1 procs for 500000 steps with 500 atoms

Performance: 1194008.249 tau/day, 2763.908 timesteps/s
91.7% CPU use with 1 MPI tasks x no OpenMP threads

MPI task timing breakdown:
Section |  min time  |  avg time  |  max time  |%varavg| %total
---------------------------------------------------------------
Pair    | 148.41     | 148.41     | 148.41     |   0.0 | 82.04
Neigh   | 20.751     | 20.751     | 20.751     |   0.0 | 11.47
Comm    | 6.021      | 6.021      | 6.021      |   0.0 |  3.33
Output  | 0.043484   | 0.043484   | 0.043484   |   0.0 |  0.02
Modify  | 4.5564     | 4.5564     | 4.5564     |   0.0 |  2.52
Other   |            | 1.125      |            |       |  0.62

Nlocal:    500 ave 500 max 500 min
Histogram: 1 0 0 0 0 0 0 0 0 0
Nghost:    1792 ave 1792 max 1792 min
Histogram: 1 0 0 0 0 0 0 0 0 0
Neighs:    18640 ave 18640 max 18640 min
Histogram: 1 0 0 0 0 0 0 0 0 0

Total # of neighbors = 18640
Ave neighs/atom = 37.28
Neighbor list builds = 25000
Dangerous builds not checked
Total wall time: 0:03:00
