LAMMPS (19 Oct 2016)
# equation of state for LJ

variable temp equal 3
variable rho  equal 0.63

units lj
atom_style atomic

lattice    fcc ${rho}
lattice    fcc 0.63
Lattice spacing in x,y,z = 1.85171 1.85171 1.85171
region box block 0 5 0 5 0 5
create_box 1 box
Created orthogonal box = (0 0 0) to (9.25855 9.25855 9.25855)
  1 by 1 by 1 MPI processor grid
create_atoms 1 box
Created 500 atoms
mass       1 1.0

pair_style lj/cut 2.5
pair_coeff 1 1 1.0 1.0 2.5

velocity   all create ${temp} 87287
velocity   all create 3 87287

neighbor   0.3 bin
neigh_modify every 20 delay 0 check no

fix        1 all nvt temp ${temp} ${temp} 100
fix        1 all nvt temp 3 ${temp} 100
fix        1 all nvt temp 3 3 100
dump       1 all custom 70000 dump_t${temp}_r${rho}.lammpstrj id type x y z
dump       1 all custom 70000 dump_t3_r${rho}.lammpstrj id type x y z
dump       1 all custom 70000 dump_t3_r0.63.lammpstrj id type x y z
thermo     2000
thermo_style  custom step press vol temp
thermo_modify flush yes

run 500000
Neighbor list info ...
  1 neighbor list requests
  update every 20 steps, delay 0 steps, check no
  max neighbors/atom: 2000, page size: 100000
  master list distance cutoff = 2.8
  ghost atom cutoff = 2.8
  binsize = 1.4 -> bins = 7 7 7
Memory usage per processor = 3.32306 Mbytes
Step Press Volume Temp 
       0   -2.5275161    793.65079            3 
    2000    3.1470723    793.65079    2.2763064 
    4000    2.8171077    793.65079    2.3737538 
    6000    3.1030794    793.65079    2.2972681 
    8000    3.1873378    793.65079    2.3043105 
   10000    2.8150651    793.65079    2.3674447 
   12000    3.1155427    793.65079    2.3118768 
   14000    3.3072714    793.65079    2.2585923 
   16000    3.1436883    793.65079    2.2997608 
   18000    2.9205344    793.65079    2.3313301 
   20000     3.600352    793.65079    2.2233036 
   22000    3.2792251    793.65079    2.2947267 
   24000     3.385697    793.65079    2.3121443 
   26000    3.1859718    793.65079    2.3403655 
   28000    3.3754612    793.65079    2.3126527 
   30000    3.4813973    793.65079    2.2796697 
   32000    3.2859126    793.65079    2.3613119 
   34000    3.5855847    793.65079    2.3294316 
   36000    3.1129961    793.65079    2.4190885 
   38000    3.2230958    793.65079    2.4132014 
   40000    3.3822697    793.65079    2.4136982 
   42000    3.1453858    793.65079    2.4556603 
   44000    3.1987992    793.65079     2.447837 
   46000     3.124524    793.65079    2.5139981 
   48000    3.3928104    793.65079    2.4758943 
   50000    3.8163864    793.65079     2.333827 
   52000    3.7916214    793.65079    2.4000426 
   54000    3.0482725    793.65079    2.5559332 
   56000    3.6863987    793.65079    2.4477496 
   58000    2.9530634    793.65079    2.5794478 
   60000    3.7111961    793.65079    2.4740563 
   62000    3.2034719    793.65079    2.5628062 
   64000    3.0551304    793.65079    2.6257389 
   66000    3.4056345    793.65079    2.5675038 
   68000    3.6686806    793.65079     2.523398 
   70000    3.8212131    793.65079    2.5364181 
   72000    3.6838926    793.65079     2.547588 
   74000    4.2693013    793.65079    2.4494131 
   76000    3.4880227    793.65079    2.6100488 
   78000    3.4616987    793.65079    2.5871122 
   80000    3.6308679    793.65079     2.607831 
   82000    3.6260743    793.65079    2.6209095 
   84000    3.7218658    793.65079    2.5843195 
   86000    3.3245328    793.65079    2.6947864 
   88000     3.999671    793.65079     2.572633 
   90000    3.4760352    793.65079    2.6625583 
   92000    3.7783509    793.65079    2.6265706 
   94000    3.7524263    793.65079    2.6143937 
   96000    3.6456127    793.65079    2.6618779 
   98000    3.9396502    793.65079    2.6277564 
  100000      3.74992    793.65079    2.6562024 
  102000    3.8646112    793.65079    2.6414157 
  104000    4.0797089    793.65079    2.6095946 
  106000    3.8274068    793.65079    2.6681731 
  108000    3.8807661    793.65079     2.649636 
  110000    3.5607636    793.65079     2.695997 
  112000    4.3297171    793.65079    2.5774751 
  114000     3.405436    793.65079    2.7262617 
  116000     3.972326    793.65079    2.6678341 
  118000    3.6821504    793.65079    2.7108289 
  120000    4.2914234    793.65079    2.6176631 
  122000    4.0417081    793.65079    2.6582421 
  124000     3.943351    793.65079    2.6818013 
  126000    4.0637954    793.65079    2.6802241 
  128000    4.0545347    793.65079    2.6414993 
  130000    3.6587773    793.65079    2.7448908 
  132000      3.95743    793.65079    2.7311675 
  134000    4.0096742    793.65079    2.6958916 
  136000    3.9958099    793.65079     2.679931 
  138000    4.1199811    793.65079    2.6476266 
  140000    4.1705594    793.65079    2.6512356 
  142000    4.1920881    793.65079    2.6549932 
  144000     4.015932    793.65079    2.7141505 
  146000    3.8511198    793.65079    2.7057528 
  148000     4.101773    793.65079     2.692824 
  150000    3.8738651    793.65079    2.7388288 
  152000    3.7531119    793.65079    2.7404924 
  154000    4.0105808    793.65079    2.7014804 
  156000    3.9032323    793.65079    2.6775717 
  158000     4.236447    793.65079    2.6653131 
  160000    3.6627999    793.65079    2.7793078 
  162000    3.7167365    793.65079    2.7429264 
  164000    4.1706197    793.65079    2.6546916 
  166000    3.9691465    793.65079    2.7039455 
  168000    3.8074111    793.65079    2.7388439 
  170000    4.3963059    793.65079    2.5975503 
  172000     4.010798    793.65079    2.6978649 
  174000    3.7750324    793.65079    2.7569833 
  176000     3.862535    793.65079    2.7032331 
  178000    3.8897432    793.65079     2.741062 
  180000    4.3086429    793.65079    2.6488978 
  182000    4.0399793    793.65079    2.7027942 
  184000    4.0304594    793.65079      2.71741 
  186000    3.9910631    793.65079    2.7018424 
  188000    3.8817414    793.65079    2.7455246 
  190000    3.7263605    793.65079     2.781519 
  192000    3.8467857    793.65079    2.7464788 
  194000    3.7419627    793.65079    2.7658966 
  196000    3.7809154    793.65079    2.7760463 
  198000    3.9878639    793.65079    2.7208086 
  200000    4.0250022    793.65079    2.6724177 
  202000    4.0347283    793.65079    2.6915672 
  204000     4.078628    793.65079    2.7068062 
  206000    4.2429503    793.65079    2.6570408 
  208000    3.8189719    793.65079    2.7510382 
  210000    3.8298042    793.65079     2.753207 
  212000     4.260619    793.65079    2.6534947 
  214000     4.024541    793.65079    2.7192137 
  216000    4.0887831    793.65079    2.6727079 
  218000    3.6820421    793.65079    2.7455272 
  220000    4.1312617    793.65079    2.6881032 
  222000    3.9135601    793.65079    2.7458416 
  224000    4.0901322    793.65079     2.729595 
  226000    3.7165703    793.65079    2.7670644 
  228000    3.7480412    793.65079    2.7543458 
  230000    3.6216323    793.65079    2.7581958 
  232000    3.8641474    793.65079    2.7441003 
  234000    3.8060812    793.65079    2.7426729 
  236000    3.7969639    793.65079     2.738003 
  238000    3.9601027    793.65079     2.731646 
  240000    4.2416783    793.65079    2.6561764 
  242000    4.0987122    793.65079    2.7046116 
  244000    4.1640243    793.65079    2.6742402 
  246000    3.9227078    793.65079    2.7265889 
  248000    3.7667539    793.65079    2.8043402 
  250000    4.0516724    793.65079    2.7038831 
  252000    4.2069074    793.65079    2.6739923 
  254000    4.1026091    793.65079    2.6886466 
  256000    4.2219572    793.65079     2.697892 
  258000    3.6908214    793.65079    2.7669599 
  260000      3.65505    793.65079    2.8245616 
  262000    4.0464127    793.65079    2.7279966 
  264000    4.3405123    793.65079    2.6193564 
  266000    4.0832048    793.65079    2.7015369 
  268000     3.838247    793.65079    2.7425769 
  270000    3.4396131    793.65079    2.7772633 
  272000    4.0291259    793.65079    2.7259327 
  274000    4.3358877    793.65079    2.6471212 
  276000    3.8926089    793.65079    2.7497415 
  278000    3.9045012    793.65079    2.7443255 
  280000    3.8728773    793.65079    2.7198453 
  282000     4.254617    793.65079     2.642977 
  284000    4.1468692    793.65079    2.7112954 
  286000     3.585141    793.65079    2.8010388 
  288000    3.7231396    793.65079    2.7981971 
  290000    4.0246917    793.65079    2.7013315 
  292000    4.1595761    793.65079    2.6767852 
  294000    3.9226448    793.65079    2.7304028 
  296000    3.9712661    793.65079    2.7357811 
  298000    4.0108278    793.65079    2.6935219 
  300000    3.8393353    793.65079    2.7387891 
  302000    3.2802789    793.65079    2.8716133 
  304000    3.9197097    793.65079    2.7221817 
  306000    3.6753098    793.65079    2.7799543 
  308000    3.9461892    793.65079    2.7496193 
  310000    4.2492622    793.65079    2.6521773 
  312000    3.6549254    793.65079    2.7851692 
  314000    3.3047415    793.65079    2.8278393 
  316000    3.9757033    793.65079     2.719059 
  318000    4.0638866    793.65079    2.7203632 
  320000    3.9710025    793.65079    2.7167236 
  322000    4.0175134    793.65079     2.676936 
  324000    3.6913863    793.65079    2.7981341 
  326000    3.6845663    793.65079    2.7867437 
  328000    3.9689201    793.65079    2.6916647 
  330000     4.283654    793.65079    2.6345978 
  332000    3.8585971    793.65079     2.742083 
  334000    3.5258007    793.65079    2.8209976 
  336000    3.9961929    793.65079    2.7200008 
  338000    4.1967055    793.65079    2.6445571 
  340000    3.9842206    793.65079    2.7219698 
  342000    4.2444683    793.65079    2.6594653 
  344000    3.8868167    793.65079     2.726436 
  346000    4.2926946    793.65079     2.675375 
  348000    4.4202946    793.65079    2.6349411 
  350000    3.8242431    793.65079    2.7852425 
  352000    3.8037276    793.65079    2.7762739 
  354000    3.8453279    793.65079    2.7600395 
  356000    3.9114362    793.65079     2.749394 
  358000    3.6750476    793.65079    2.7677945 
  360000    4.1435918    793.65079    2.7162161 
  362000       4.3585    793.65079    2.6690014 
  364000    3.8153855    793.65079    2.7642668 
  366000    3.9603748    793.65079    2.7166356 
  368000    4.2358029    793.65079    2.6380767 
  370000    4.0078614    793.65079    2.7035065 
  372000    3.9391326    793.65079    2.7399705 
  374000    4.2623268    793.65079    2.6864253 
  376000    3.8880156    793.65079     2.726569 
  378000    4.0139994    793.65079    2.6996719 
  380000    3.9958135    793.65079    2.6964171 
  382000    3.8390278    793.65079    2.7291398 
  384000    3.7662348    793.65079    2.7416012 
  386000     3.601993    793.65079      2.80725 
  388000    4.0313514    793.65079    2.7057062 
  390000    3.7402984    793.65079    2.7769332 
  392000     4.152624    793.65079    2.6801456 
  394000    4.0996222    793.65079    2.7037362 
  396000    4.3907783    793.65079    2.6492176 
  398000    3.9703341    793.65079    2.7301738 
  400000    4.0971901    793.65079    2.6816881 
  402000    4.2748531    793.65079    2.6665991 
  404000    4.1326714    793.65079    2.6808564 
  406000    4.1299977    793.65079    2.6986893 
  408000    4.3157497    793.65079    2.6590177 
  410000    3.7083159    793.65079     2.799664 
  412000    3.9702918    793.65079    2.7422821 
  414000    4.0111894    793.65079    2.6965695 
  416000     4.045974    793.65079    2.7268591 
  418000    3.9222867    793.65079     2.712206 
  420000    4.1923792    793.65079    2.6892743 
  422000    4.0065726    793.65079    2.7041178 
  424000    4.0189634    793.65079    2.6896357 
  426000    3.9296744    793.65079    2.7275475 
  428000    3.9990617    793.65079    2.7264798 
  430000    3.7652527    793.65079    2.7500245 
  432000    4.1715381    793.65079    2.6862673 
  434000    4.0490518    793.65079    2.7049793 
  436000    4.0217749    793.65079    2.7041786 
  438000     3.890769    793.65079    2.7226241 
  440000    3.8031674    793.65079    2.7334121 
  442000    3.5848069    793.65079    2.8069984 
  444000    3.9882139    793.65079     2.754484 
  446000    3.8211262    793.65079    2.7545215 
  448000     3.803239    793.65079    2.7792413 
  450000    4.2074866    793.65079    2.6916454 
  452000    4.2033651    793.65079    2.6706802 
  454000    3.9921816    793.65079    2.6946122 
  456000    3.5935239    793.65079    2.7858038 
  458000    3.6009036    793.65079    2.7723288 
  460000    3.5503573    793.65079     2.813701 
  462000    4.0099624    793.65079    2.7026318 
  464000    3.8126704    793.65079    2.7494457 
  466000    3.7304203    793.65079     2.757317 
  468000    3.9749532    793.65079    2.7412762 
  470000    3.9220798    793.65079    2.7400181 
  472000    3.8076233    793.65079    2.7578342 
  474000    3.5745102    793.65079    2.7796537 
  476000    3.6263981    793.65079    2.8015057 
  478000    4.1934609    793.65079    2.6645209 
  480000    3.7060352    793.65079    2.7646408 
  482000    3.7694106    793.65079    2.7665783 
  484000    3.6766332    793.65079    2.8045489 
  486000    3.8604456    793.65079    2.7361181 
  488000    4.0142555    793.65079    2.7113217 
  490000    3.8636907    793.65079    2.7504163 
  492000    4.0786957    793.65079    2.7132386 
  494000    3.8677873    793.65079    2.7385506 
  496000     3.558249    793.65079    2.8035837 
  498000     4.167884    793.65079    2.6779413 
  500000    3.8238462    793.65079    2.7588936 
Loop time of 133.207 on 1 procs for 500000 steps with 500 atoms

Performance: 1621541.264 tau/day, 3753.568 timesteps/s
96.6% CPU use with 1 MPI tasks x no OpenMP threads

MPI task timing breakdown:
Section |  min time  |  avg time  |  max time  |%varavg| %total
---------------------------------------------------------------
Pair    | 105.85     | 105.85     | 105.85     |   0.0 | 79.46
Neigh   | 17.608     | 17.608     | 17.608     |   0.0 | 13.22
Comm    | 4.793      | 4.793      | 4.793      |   0.0 |  3.60
Output  | 0.023156   | 0.023156   | 0.023156   |   0.0 |  0.02
Modify  | 4.0431     | 4.0431     | 4.0431     |   0.0 |  3.04
Other   |            | 0.8895     |            |       |  0.67

Nlocal:    500 ave 500 max 500 min
Histogram: 1 0 0 0 0 0 0 0 0 0
Nghost:    1522 ave 1522 max 1522 min
Histogram: 1 0 0 0 0 0 0 0 0 0
Neighs:    14241 ave 14241 max 14241 min
Histogram: 1 0 0 0 0 0 0 0 0 0

Total # of neighbors = 14241
Ave neighs/atom = 28.482
Neighbor list builds = 25000
Dangerous builds not checked
Total wall time: 0:02:13
