LAMMPS (19 Oct 2016)
# equation of state for LJ

variable temp equal 3
variable rho  equal 0.82

units lj
atom_style atomic

lattice    fcc ${rho}
lattice    fcc 0.82
Lattice spacing in x,y,z = 1.69596 1.69596 1.69596
region box block 0 5 0 5 0 5
create_box 1 box
Created orthogonal box = (0 0 0) to (8.4798 8.4798 8.4798)
  1 by 1 by 1 MPI processor grid
create_atoms 1 box
Created 500 atoms
mass       1 1.0

pair_style lj/cut 2.5
pair_coeff 1 1 1.0 1.0 2.5

velocity   all create ${temp} 87287
velocity   all create 3 87287

neighbor   0.3 bin
neigh_modify every 20 delay 0 check no

fix        1 all nvt temp ${temp} ${temp} 100
fix        1 all nvt temp 3 ${temp} 100
fix        1 all nvt temp 3 3 100
dump       1 all custom 70000 dump_t${temp}_r${rho}.lammpstrj id type x y z
dump       1 all custom 70000 dump_t3_r${rho}.lammpstrj id type x y z
dump       1 all custom 70000 dump_t3_r0.82.lammpstrj id type x y z
thermo     2000
thermo_style  custom step press vol temp
thermo_modify flush yes

run 500000
Neighbor list info ...
  1 neighbor list requests
  update every 20 steps, delay 0 steps, check no
  max neighbors/atom: 2000, page size: 100000
  master list distance cutoff = 2.8
  ghost atom cutoff = 2.8
  binsize = 1.4 -> bins = 7 7 7
Memory usage per processor = 3.32306 Mbytes
Step Press Volume Temp 
       0   -3.7979237     609.7561            3 
    2000    5.7229493     609.7561    1.6496097 
    4000    5.5418656     609.7561    1.6842556 
    6000    5.3401881     609.7561    1.7510508 
    8000    5.2849199     609.7561    1.8047354 
   10000    5.6236157     609.7561    1.7868756 
   12000    5.7890884     609.7561    1.7781381 
   14000    5.4669164     609.7561    1.8436099 
   16000    5.6947858     609.7561    1.8518847 
   18000    5.9984972     609.7561    1.8122056 
   20000    5.7718074     609.7561    1.8768503 
   22000    5.9479166     609.7561    1.8789382 
   24000    6.5000386     609.7561    1.8690029 
   26000    6.4629128     609.7561    1.8916074 
   28000    5.9370862     609.7561    2.0198189 
   30000    6.9222231     609.7561    1.8873764 
   32000    6.5014407     609.7561    2.0216191 
   34000    6.8548994     609.7561    1.9959519 
   36000    6.6656777     609.7561    2.0667728 
   38000    7.0495253     609.7561    2.0470626 
   40000    7.2343297     609.7561    2.0600773 
   42000    7.3613003     609.7561    2.0949358 
   44000    6.6887709     609.7561    2.2371626 
   46000    6.9373501     609.7561    2.2715054 
   48000    7.0454656     609.7561    2.2723024 
   50000    7.6554779     609.7561    2.2068007 
   52000    7.9178827     609.7561    2.2074718 
   54000    7.7139212     609.7561    2.2950541 
   56000    7.5542626     609.7561    2.3391259 
   58000    7.4755761     609.7561    2.3831146 
   60000    7.6309814     609.7561    2.4153209 
   62000    7.8140853     609.7561    2.4300564 
   64000    8.3596169     609.7561    2.3755942 
   66000    7.9423109     609.7561    2.4386485 
   68000    8.4867051     609.7561    2.3999749 
   70000    8.3468974     609.7561    2.4650287 
   72000    8.2133522     609.7561    2.5260804 
   74000    8.5020728     609.7561    2.5205536 
   76000    9.1726515     609.7561    2.4482283 
   78000    8.6267705     609.7561    2.5208948 
   80000    8.5253174     609.7561    2.6092745 
   82000    9.1501052     609.7561    2.5176833 
   84000    8.8105986     609.7561    2.6216227 
   86000    8.8753953     609.7561    2.6225201 
   88000    8.9584411     609.7561    2.6300358 
   90000    8.9306889     609.7561    2.6406614 
   92000    9.3128156     609.7561    2.6177581 
   94000    8.9856486     609.7561    2.6897503 
   96000    9.0307974     609.7561     2.732703 
   98000    8.7798289     609.7561    2.7585594 
  100000    9.5615005     609.7561    2.6619963 
  102000    8.9922989     609.7561    2.7592167 
  104000    9.5728309     609.7561    2.7050177 
  106000    9.7591743     609.7561    2.6820183 
  108000    9.8326701     609.7561    2.6742248 
  110000    9.5103186     609.7561    2.7353453 
  112000    9.7895354     609.7561    2.6920442 
  114000    9.4242433     609.7561    2.7956085 
  116000    9.4531749     609.7561    2.8083697 
  118000    9.3449811     609.7561    2.8187353 
  120000     9.714069     609.7561    2.7437911 
  122000    10.069891     609.7561    2.7337193 
  124000    10.207667     609.7561    2.7294924 
  126000    9.2151815     609.7561    2.8712102 
  128000    9.9273193     609.7561    2.7812666 
  130000    9.5886565     609.7561    2.8384769 
  132000    9.9894365     609.7561    2.7710433 
  134000    9.8043208     609.7561    2.8198402 
  136000    10.270772     609.7561    2.7494248 
  138000    9.9217287     609.7561    2.8094382 
  140000    10.282897     609.7561    2.7417514 
  142000    9.7244536     609.7561      2.83997 
  144000    9.9472082     609.7561    2.8080656 
  146000    9.2187393     609.7561    2.9096428 
  148000    10.185636     609.7561    2.7614409 
  150000    9.7944113     609.7561     2.830987 
  152000    10.074386     609.7561    2.7913002 
  154000    10.418326     609.7561    2.7291348 
  156000    9.4334438     609.7561    2.8950381 
  158000    9.6497791     609.7561    2.8630724 
  160000    9.8602899     609.7561    2.8213796 
  162000    9.9541007     609.7561    2.8150345 
  164000    10.349686     609.7561    2.7579498 
  166000    10.125982     609.7561    2.7965014 
  168000    9.8739134     609.7561    2.8268177 
  170000    9.9249774     609.7561    2.7985978 
  172000    9.4573545     609.7561    2.8871122 
  174000    9.6573297     609.7561    2.8748469 
  176000    10.232028     609.7561    2.7661382 
  178000     9.232254     609.7561    2.9538876 
  180000    9.8518857     609.7561    2.8204979 
  182000    9.8645532     609.7561    2.8199905 
  184000     10.34817     609.7561    2.7504279 
  186000    9.6139572     609.7561     2.870006 
  188000    9.8344098     609.7561    2.8295293 
  190000    10.301018     609.7561    2.7357989 
  192000    9.9333141     609.7561    2.8126774 
  194000    9.6325317     609.7561    2.8516675 
  196000    9.8967826     609.7561    2.8302027 
  198000    9.7042888     609.7561    2.8586909 
  200000    10.189874     609.7561    2.7906031 
  202000    9.9089749     609.7561    2.8137823 
  204000    9.8807135     609.7561    2.8287198 
  206000    9.6769877     609.7561    2.8303535 
  208000    9.5076187     609.7561      2.88118 
  210000    9.4250468     609.7561     2.872068 
  212000    9.6925793     609.7561     2.828859 
  214000    9.9078511     609.7561    2.7997724 
  216000    9.7380228     609.7561    2.8388952 
  218000    9.9710191     609.7561    2.8089379 
  220000    10.055062     609.7561     2.788687 
  222000    9.3181729     609.7561    2.8906818 
  224000    9.7444046     609.7561    2.8405242 
  226000    10.746622     609.7561    2.6464892 
  228000    10.108838     609.7561    2.7461319 
  230000    9.6342143     609.7561    2.8459229 
  232000    10.130585     609.7561    2.7376214 
  234000    9.9318527     609.7561     2.797497 
  236000    9.8475461     609.7561    2.7863194 
  238000    9.8651888     609.7561    2.7972439 
  240000    9.8905645     609.7561    2.7860145 
  242000    10.101604     609.7561    2.7588512 
  244000    9.8882405     609.7561    2.7936471 
  246000    9.6758306     609.7561    2.7965788 
  248000    10.035413     609.7561    2.7446671 
  250000    9.6154537     609.7561     2.820614 
  252000    9.8469912     609.7561    2.7828543 
  254000    9.5261093     609.7561    2.8526973 
  256000    10.496762     609.7561    2.6748541 
  258000      10.2077     609.7561    2.7319262 
  260000    9.7228351     609.7561    2.7957988 
  262000    9.8058834     609.7561    2.7986143 
  264000    9.6354974     609.7561    2.8362409 
  266000    10.392978     609.7561     2.683543 
  268000    9.9920376     609.7561    2.7764045 
  270000     9.344877     609.7561    2.8706059 
  272000    9.6037522     609.7561    2.8060778 
  274000    9.8389038     609.7561    2.7862718 
  276000    10.321355     609.7561    2.6924115 
  278000     9.709897     609.7561    2.8303595 
  280000    9.7609468     609.7561    2.8001624 
  282000    9.3130534     609.7561    2.8557052 
  284000    9.3279158     609.7561    2.8935213 
  286000    9.2521433     609.7561    2.8974457 
  288000    10.085369     609.7561    2.7268636 
  290000    10.062349     609.7561    2.7651983 
  292000    10.254184     609.7561    2.7343788 
  294000    9.6577712     609.7561    2.8326194 
  296000    9.7021401     609.7561    2.8118609 
  298000    9.4188439     609.7561    2.8741997 
  300000    9.4358163     609.7561     2.864908 
  302000    9.5756318     609.7561    2.8054435 
  304000    9.1219641     609.7561    2.8851358 
  306000    9.4999342     609.7561    2.8527712 
  308000    9.8350507     609.7561    2.7739976 
  310000    9.5151172     609.7561    2.8362453 
  312000    9.8071427     609.7561    2.7761159 
  314000    9.7496247     609.7561    2.7809564 
  316000    9.9335894     609.7561    2.7685149 
  318000    9.9078606     609.7561     2.768189 
  320000    10.221252     609.7561    2.7226689 
  322000      9.48403     609.7561    2.8409469 
  324000    9.6158249     609.7561    2.8068982 
  326000    9.8305192     609.7561    2.7806561 
  328000    9.6053719     609.7561    2.8057914 
  330000    9.3000793     609.7561    2.8576545 
  332000     9.724198     609.7561      2.79177 
  334000    9.2093939     609.7561    2.8720449 
  336000    10.058056     609.7561    2.7299076 
  338000    9.1517884     609.7561    2.8754978 
  340000     9.929875     609.7561    2.7564633 
  342000    9.7685059     609.7561    2.7786274 
  344000    9.5186066     609.7561    2.8075458 
  346000    10.478094     609.7561    2.6433818 
  348000    9.4467297     609.7561    2.8410771 
  350000    9.4185471     609.7561    2.8526893 
  352000    10.412764     609.7561     2.678759 
  354000    9.5169137     609.7561    2.8052156 
  356000    9.6138878     609.7561    2.8034193 
  358000     9.035195     609.7561    2.8880473 
  360000    9.6459349     609.7561    2.7900932 
  362000    9.4643294     609.7561    2.8179402 
  364000    9.0788011     609.7561    2.9018409 
  366000    9.6595137     609.7561     2.789933 
  368000    10.036542     609.7561    2.7393279 
  370000    9.4739996     609.7561    2.8194222 
  372000    9.7975203     609.7561    2.7580664 
  374000    9.2286194     609.7561    2.8596218 
  376000    9.8821024     609.7561    2.7510332 
  378000    9.9807703     609.7561    2.7016003 
  380000    10.120825     609.7561    2.6968581 
  382000    9.3648476     609.7561    2.8407778 
  384000    9.1332551     609.7561    2.8670792 
  386000    9.6753965     609.7561    2.7912255 
  388000    9.5965188     609.7561    2.7700736 
  390000    9.2949219     609.7561    2.8392739 
  392000    9.9464695     609.7561    2.7444371 
  394000    9.7802211     609.7561    2.7980755 
  396000    9.6999414     609.7561     2.784814 
  398000    9.5814747     609.7561    2.7884695 
  400000    9.8837839     609.7561    2.7628221 
  402000    10.054961     609.7561    2.7220697 
  404000    9.1006314     609.7561    2.8801815 
  406000    9.7736905     609.7561    2.7695649 
  408000    9.4108006     609.7561    2.8436189 
  410000    9.2936348     609.7561    2.8243559 
  412000    10.198461     609.7561    2.6780331 
  414000    9.7791542     609.7561    2.7597877 
  416000    9.4418503     609.7561    2.8286589 
  418000    9.6688247     609.7561    2.7813886 
  420000    9.7962474     609.7561    2.7519043 
  422000    9.8928162     609.7561    2.7432344 
  424000    9.7664398     609.7561    2.7527269 
  426000    10.220012     609.7561    2.6676766 
  428000     9.577532     609.7561    2.7804644 
  430000    8.7164284     609.7561    2.9299457 
  432000    9.2038979     609.7561    2.8575951 
  434000    9.7129332     609.7561    2.7942791 
  436000    10.166236     609.7561    2.6904954 
  438000    9.5043743     609.7561    2.8057026 
  440000     9.233532     609.7561    2.8208021 
  442000    9.2628415     609.7561    2.8379774 
  444000    10.474149     609.7561    2.6465409 
  446000    9.5685954     609.7561    2.7854313 
  448000    9.4055234     609.7561    2.8314511 
  450000    9.1042574     609.7561    2.8689635 
  452000     9.973297     609.7561    2.7184558 
  454000    9.8520415     609.7561    2.7599791 
  456000    9.6318909     609.7561    2.7879353 
  458000    9.7267393     609.7561    2.7630224 
  460000    9.7061949     609.7561    2.7612675 
  462000    9.0998119     609.7561    2.8560032 
  464000    9.2259433     609.7561    2.8489867 
  466000    9.3288212     609.7561    2.8056643 
  468000    9.2142392     609.7561    2.8560375 
  470000    9.3514507     609.7561    2.8338968 
  472000    9.3417682     609.7561    2.8235868 
  474000    8.8788929     609.7561    2.9088749 
  476000    9.2745798     609.7561    2.8142353 
  478000    9.7300626     609.7561    2.7347707 
  480000    9.0387874     609.7561      2.85674 
  482000    9.6124898     609.7561    2.7695399 
  484000    9.9627388     609.7561    2.7105532 
  486000    9.7652802     609.7561    2.7359981 
  488000    9.6539858     609.7561    2.7659155 
  490000    9.4126538     609.7561    2.7802274 
  492000    9.6908928     609.7561    2.7545204 
  494000    9.5040682     609.7561    2.7841347 
  496000     9.660564     609.7561    2.7473726 
  498000    10.103525     609.7561    2.6626097 
  500000    9.7296966     609.7561    2.7562828 
Loop time of 164.169 on 1 procs for 500000 steps with 500 atoms

Performance: 1315713.613 tau/day, 3045.633 timesteps/s
96.7% CPU use with 1 MPI tasks x no OpenMP threads

MPI task timing breakdown:
Section |  min time  |  avg time  |  max time  |%varavg| %total
---------------------------------------------------------------
Pair    | 134.78     | 134.78     | 134.78     |   0.0 | 82.10
Neigh   | 18.884     | 18.884     | 18.884     |   0.0 | 11.50
Comm    | 5.4024     | 5.4024     | 5.4024     |   0.0 |  3.29
Output  | 0.014114   | 0.014114   | 0.014114   |   0.0 |  0.01
Modify  | 4.1205     | 4.1205     | 4.1205     |   0.0 |  2.51
Other   |            | 0.9682     |            |       |  0.59

Nlocal:    500 ave 500 max 500 min
Histogram: 1 0 0 0 0 0 0 0 0 0
Nghost:    1788 ave 1788 max 1788 min
Histogram: 1 0 0 0 0 0 0 0 0 0
Neighs:    18542 ave 18542 max 18542 min
Histogram: 1 0 0 0 0 0 0 0 0 0

Total # of neighbors = 18542
Ave neighs/atom = 37.084
Neighbor list builds = 25000
Dangerous builds not checked
Total wall time: 0:02:44
