LAMMPS (19 Oct 2016)
# equation of state for LJ

variable temp equal 3
variable rho  equal 0.95

units lj
atom_style atomic

lattice    fcc ${rho}
lattice    fcc 0.95
Lattice spacing in x,y,z = 1.61478 1.61478 1.61478
region box block 0 5 0 5 0 5
create_box 1 box
Created orthogonal box = (0 0 0) to (8.07388 8.07388 8.07388)
  1 by 1 by 1 MPI processor grid
create_atoms 1 box
Created 500 atoms
mass       1 1.0

pair_style lj/cut 2.5
pair_coeff 1 1 1.0 1.0 2.5

velocity   all create ${temp} 87287
velocity   all create 3 87287

neighbor   0.3 bin
neigh_modify every 20 delay 0 check no

fix        1 all nvt temp ${temp} ${temp} 100
fix        1 all nvt temp 3 ${temp} 100
fix        1 all nvt temp 3 3 100
dump       1 all custom 70000 dump_t${temp}_r${rho}.lammpstrj id type x y z
dump       1 all custom 70000 dump_t3_r${rho}.lammpstrj id type x y z
dump       1 all custom 70000 dump_t3_r0.95.lammpstrj id type x y z
thermo     2000
thermo_style  custom step press vol temp
thermo_modify flush yes

run 500000
Neighbor list info ...
  1 neighbor list requests
  update every 20 steps, delay 0 steps, check no
  max neighbors/atom: 2000, page size: 100000
  master list distance cutoff = 2.8
  ghost atom cutoff = 2.8
  binsize = 1.4 -> bins = 6 6 6
Memory usage per processor = 3.32155 Mbytes
Step Press Volume Temp 
       0   -2.0931915    526.31579            3 
    2000      9.17047    526.31579    1.4049071 
    4000     9.138567    526.31579    1.4263578 
    6000    9.1357502    526.31579    1.4413417 
    8000    9.5397582    526.31579    1.4269084 
   10000    9.7528834    526.31579    1.4299212 
   12000     9.535263    526.31579    1.5030913 
   14000    9.7312234    526.31579    1.4939378 
   16000    9.4833979    526.31579    1.5812572 
   18000    9.8287314    526.31579    1.5656162 
   20000    9.9928305    526.31579    1.5780407 
   22000    10.090811    526.31579    1.6308728 
   24000    11.017294    526.31579    1.5297279 
   26000    10.988667    526.31579    1.5734781 
   28000     10.70586    526.31579     1.670706 
   30000    10.639238    526.31579    1.7498268 
   32000    11.010936    526.31579    1.7263028 
   34000    11.357089    526.31579    1.7422715 
   36000    11.792848    526.31579    1.7232214 
   38000    11.550543    526.31579    1.8099281 
   40000    11.830239    526.31579    1.8333716 
   42000    11.888244    526.31579    1.8761511 
   44000    12.661829    526.31579    1.8182354 
   46000    11.877542    526.31579     1.998008 
   48000    12.577927    526.31579    1.9495312 
   50000    12.888308    526.31579    1.9575472 
   52000    13.208287    526.31579    1.9573044 
   54000    13.613989    526.31579    1.9473243 
   56000    13.672437    526.31579    2.0240255 
   58000    13.271219    526.31579    2.1257165 
   60000    13.842999    526.31579    2.0924463 
   62000    13.765778    526.31579    2.1527949 
   64000    13.590546    526.31579    2.2378116 
   66000    14.114661    526.31579    2.2290035 
   68000    14.561589    526.31579    2.2183304 
   70000    14.424427    526.31579    2.2812999 
   72000    14.581228    526.31579    2.3187322 
   74000    14.934992    526.31579    2.3146561 
   76000    14.813753    526.31579     2.389422 
   78000    15.486386    526.31579    2.3519672 
   80000    15.547151    526.31579    2.3991585 
   82000    15.758324    526.31579    2.4208579 
   84000    15.912407    526.31579    2.4310645 
   86000    15.245217    526.31579    2.5933776 
   88000    15.416751    526.31579    2.6105704 
   90000    15.699311    526.31579    2.6061059 
   92000    16.366554    526.31579    2.5528653 
   94000    16.547642    526.31579    2.5863667 
   96000    16.100018    526.31579    2.6953109 
   98000    16.704566    526.31579    2.6412041 
  100000    16.004057    526.31579    2.7813445 
  102000    16.318896    526.31579    2.7691519 
  104000    16.610415    526.31579    2.7670426 
  106000    16.936276    526.31579     2.738943 
  108000    16.661312    526.31579    2.8170044 
  110000    17.609552    526.31579    2.7129554 
  112000    17.392792    526.31579     2.761885 
  114000    17.501654    526.31579    2.7778406 
  116000    16.329363    526.31579    2.9719432 
  118000    17.280038    526.31579    2.8594504 
  120000     17.68772    526.31579    2.8049718 
  122000    17.247009    526.31579    2.9123312 
  124000    18.632991    526.31579     2.720631 
  126000    18.053383    526.31579    2.8057748 
  128000      17.3545    526.31579    2.9515687 
  130000    17.233979    526.31579    2.9767707 
  132000    18.208324    526.31579    2.8357304 
  134000    17.541541    526.31579    2.9583407 
  136000     17.67234    526.31579     2.948329 
  138000    18.153745    526.31579    2.8755159 
  140000    17.443833    526.31579    2.9941136 
  142000    17.745934    526.31579    2.9759602 
  144000    18.018486    526.31579    2.9322641 
  146000    18.626998    526.31579    2.8370027 
  148000    18.767285    526.31579     2.808912 
  150000     18.73568    526.31579    2.8380953 
  152000     18.26292    526.31579    2.8864791 
  154000    18.200191    526.31579     2.913413 
  156000    18.234422    526.31579     2.925257 
  158000    18.194429    526.31579    2.9314993 
  160000    18.626577    526.31579    2.8464635 
  162000    18.440927    526.31579    2.9108943 
  164000     18.36221    526.31579    2.8966816 
  166000    18.441545    526.31579     2.872268 
  168000    17.957348    526.31579    2.9778446 
  170000    18.418734    526.31579    2.8656708 
  172000    18.479322    526.31579    2.8752028 
  174000    18.498415    526.31579    2.8688281 
  176000    17.597203    526.31579    3.0182615 
  178000    17.534484    526.31579    2.9924167 
  180000    18.092186    526.31579    2.9260713 
  182000    18.231899    526.31579    2.8902762 
  184000    18.015337    526.31579    2.9157969 
  186000      18.3166    526.31579    2.8863281 
  188000    17.214538    526.31579    3.0723268 
  190000    18.148248    526.31579    2.9060575 
  192000    17.832914    526.31579    2.9426783 
  194000    17.928204    526.31579    2.9350386 
  196000    17.502034    526.31579    3.0065712 
  198000    17.761977    526.31579    2.9461441 
  200000    18.474678    526.31579     2.820811 
  202000    18.047851    526.31579    2.9239017 
  204000    18.189563    526.31579    2.8536563 
  206000    17.351299    526.31579    2.9900987 
  208000    17.686096    526.31579    2.9425374 
  210000    18.194963    526.31579     2.888766 
  212000    18.207133    526.31579    2.8723883 
  214000    17.585103    526.31579    2.9588936 
  216000    18.299821    526.31579    2.8535073 
  218000    17.991091    526.31579    2.8884665 
  220000    17.479984    526.31579    2.9700127 
  222000    17.575462    526.31579    2.9633393 
  224000    17.353108    526.31579    3.0099023 
  226000    17.452438    526.31579    2.9847497 
  228000     18.29622    526.31579    2.8679905 
  230000    17.361769    526.31579    3.0036289 
  232000     17.76001    526.31579    2.9401349 
  234000    18.275708    526.31579    2.8522118 
  236000    17.628295    526.31579    2.9675642 
  238000    17.459057    526.31579    2.9813283 
  240000    18.060975    526.31579    2.8901889 
  242000    17.733364    526.31579    2.9279053 
  244000    18.078013    526.31579    2.8771946 
  246000    17.515416    526.31579    2.9748209 
  248000    18.031839    526.31579    2.8705251 
  250000     17.37338    526.31579    2.9799735 
  252000    17.822087    526.31579    2.9118783 
  254000    18.438585    526.31579    2.8232117 
  256000    17.680046    526.31579    2.9437105 
  258000    17.980382    526.31579     2.914786 
  260000      18.5668    526.31579    2.7877636 
  262000    18.276779    526.31579    2.8313199 
  264000    17.217255    526.31579    3.0223829 
  266000    18.156762    526.31579    2.8582201 
  268000     17.73734    526.31579    2.9382849 
  270000    18.594235    526.31579    2.7905059 
  272000    18.370055    526.31579    2.8353179 
  274000    18.167312    526.31579    2.8790288 
  276000    17.788176    526.31579    2.9114644 
  278000    18.141319    526.31579    2.8674152 
  280000     18.34889    526.31579     2.821329 
  282000    17.656428    526.31579    2.9340168 
  284000     17.86662    526.31579    2.9219022 
  286000    17.868452    526.31579    2.9100017 
  288000    17.828361    526.31579    2.9074522 
  290000    18.017315    526.31579    2.8706255 
  292000    17.438266    526.31579    2.9806745 
  294000    18.021955    526.31579    2.8539127 
  296000    18.019925    526.31579    2.8963227 
  298000    18.551822    526.31579    2.7993493 
  300000    18.005007    526.31579    2.8804108 
  302000    17.716868    526.31579     2.920553 
  304000    18.179634    526.31579    2.8364823 
  306000    17.990548    526.31579    2.8669559 
  308000    18.125201    526.31579    2.8600698 
  310000    18.268272    526.31579    2.8353583 
  312000    17.707009    526.31579    2.9332287 
  314000    17.412676    526.31579     2.954051 
  316000    18.244153    526.31579    2.8373017 
  318000    17.772829    526.31579    2.9236058 
  320000     18.14091    526.31579    2.8492692 
  322000    17.827925    526.31579    2.8913343 
  324000    17.883043    526.31579    2.8995704 
  326000    17.342338    526.31579     2.979427 
  328000    18.129607    526.31579     2.867176 
  330000    17.183072    526.31579    2.9973442 
  332000    18.260237    526.31579    2.8217224 
  334000    17.351183    526.31579    2.9720319 
  336000    17.373645    526.31579    2.9468679 
  338000    18.255338    526.31579    2.8246985 
  340000    17.984359    526.31579    2.8681957 
  342000    17.884977    526.31579    2.8780901 
  344000    18.193341    526.31579    2.8466744 
  346000    16.974361    526.31579    3.0120196 
  348000    17.706777    526.31579    2.8843101 
  350000    18.465017    526.31579    2.7802279 
  352000    17.563716    526.31579    2.9372702 
  354000    17.977012    526.31579     2.846222 
  356000    18.139705    526.31579    2.8492922 
  358000    17.821029    526.31579    2.8912938 
  360000    17.926938    526.31579    2.8687932 
  362000     18.07153    526.31579    2.8354739 
  364000    17.518762    526.31579    2.9179148 
  366000    18.515211    526.31579    2.7568287 
  368000    17.447104    526.31579     2.936139 
  370000    17.300443    526.31579    2.9383101 
  372000    17.893364    526.31579    2.8666796 
  374000    18.265644    526.31579    2.8068515 
  376000    17.813659    526.31579    2.8806732 
  378000     18.00312    526.31579    2.8492579 
  380000     17.68982    526.31579    2.9200236 
  382000     18.42017    526.31579    2.7884745 
  384000    18.070921    526.31579    2.8062139 
  386000    17.260992    526.31579    2.9577726 
  388000    17.886243    526.31579    2.8615668 
  390000    17.723008    526.31579    2.8638872 
  392000    17.283829    526.31579    2.9560033 
  394000    17.851187    526.31579    2.8630682 
  396000    17.416838    526.31579    2.9439038 
  398000    18.079687    526.31579     2.813989 
  400000    17.731631    526.31579    2.8763349 
  402000    17.549766    526.31579    2.9245459 
  404000    17.676769    526.31579    2.9133643 
  406000     18.14266    526.31579     2.795346 
  408000    18.094688    526.31579    2.8180642 
  410000     17.57903    526.31579    2.8847585 
  412000    17.723093    526.31579    2.8591495 
  414000    17.714741    526.31579    2.8758676 
  416000    17.231712    526.31579    2.9475669 
  418000    17.865952    526.31579     2.824377 
  420000    17.471887    526.31579    2.9300142 
  422000    17.546836    526.31579    2.8928778 
  424000      17.8037    526.31579    2.8707364 
  426000    17.899013    526.31579    2.8322012 
  428000    18.043885    526.31579    2.8185515 
  430000    17.551684    526.31579    2.8997326 
  432000    17.294876    526.31579    2.9238675 
  434000    17.305492    526.31579    2.9270507 
  436000    17.517068    526.31579    2.8969784 
  438000    17.899486    526.31579    2.8510347 
  440000    17.945813    526.31579     2.805091 
  442000    18.276893    526.31579    2.7681745 
  444000    17.846118    526.31579    2.8387323 
  446000    17.370637    526.31579     2.902423 
  448000    17.619608    526.31579    2.8793948 
  450000    17.126489    526.31579    2.9287041 
  452000    17.323835    526.31579     2.912772 
  454000    17.050315    526.31579    2.9349032 
  456000    17.789846    526.31579    2.8311075 
  458000     17.99619    526.31579    2.8109566 
  460000     17.55534    526.31579    2.8748431 
  462000     18.17052    526.31579    2.7598268 
  464000    17.453435    526.31579    2.8661952 
  466000    17.815977    526.31579    2.8177149 
  468000    17.741497    526.31579    2.8429066 
  470000    18.256788    526.31579    2.7566829 
  472000    17.036303    526.31579    2.9463836 
  474000    17.479515    526.31579    2.8639337 
  476000    17.094999    526.31579    2.9375047 
  478000    18.084982    526.31579    2.7825615 
  480000    16.766576    526.31579    2.9795406 
  482000    17.562574    526.31579    2.8628693 
  484000    17.463148    526.31579    2.8558005 
  486000    17.694246    526.31579    2.8252363 
  488000    17.203757    526.31579    2.8987151 
  490000    18.247604    526.31579    2.7400271 
  492000    17.410799    526.31579    2.8887244 
  494000    17.528236    526.31579    2.8670857 
  496000    17.561548    526.31579    2.8489953 
  498000    18.374972    526.31579    2.7045274 
  500000    17.839821    526.31579    2.8024799 
Loop time of 195.118 on 1 procs for 500000 steps with 500 atoms

Performance: 1107021.021 tau/day, 2562.549 timesteps/s
96.1% CPU use with 1 MPI tasks x no OpenMP threads

MPI task timing breakdown:
Section |  min time  |  avg time  |  max time  |%varavg| %total
---------------------------------------------------------------
Pair    | 159.27     | 159.27     | 159.27     |   0.0 | 81.63
Neigh   | 24.585     | 24.585     | 24.585     |   nan | 12.60
Comm    | 5.8524     | 5.8524     | 5.8524     |   0.0 |  3.00
Output  | 0.016097   | 0.016097   | 0.016097   |   0.0 |  0.01
Modify  | 4.2812     | 4.2812     | 4.2812     |   0.0 |  2.19
Other   |            | 1.111      |            |       |  0.57

Nlocal:    500 ave 500 max 500 min
Histogram: 1 0 0 0 0 0 0 0 0 0
Nghost:    1934 ave 1934 max 1934 min
Histogram: 1 0 0 0 0 0 0 0 0 0
Neighs:    21463 ave 21463 max 21463 min
Histogram: 1 0 0 0 0 0 0 0 0 0

Total # of neighbors = 21463
Ave neighs/atom = 42.926
Neighbor list builds = 25000
Dangerous builds not checked
Total wall time: 0:03:15
