LAMMPS (19 Oct 2016)
# equation of state for LJ

variable temp equal 3
variable rho  equal 0.8

units lj
atom_style atomic

lattice    fcc ${rho}
lattice    fcc 0.8
Lattice spacing in x,y,z = 1.70998 1.70998 1.70998
region box block 0 5 0 5 0 5
create_box 1 box
Created orthogonal box = (0 0 0) to (8.54988 8.54988 8.54988)
  1 by 1 by 1 MPI processor grid
create_atoms 1 box
Created 500 atoms
mass       1 1.0

pair_style lj/cut 2.5
pair_coeff 1 1 1.0 1.0 2.5

velocity   all create ${temp} 87287
velocity   all create 3 87287

neighbor   0.3 bin
neigh_modify every 20 delay 0 check no

fix        1 all nvt temp ${temp} ${temp} 100
fix        1 all nvt temp 3 ${temp} 100
fix        1 all nvt temp 3 3 100
dump       1 all custom 70000 dump_t${temp}_r${rho}.lammpstrj id type x y z
dump       1 all custom 70000 dump_t3_r${rho}.lammpstrj id type x y z
dump       1 all custom 70000 dump_t3_r0.8.lammpstrj id type x y z
thermo     2000
thermo_style  custom step press vol temp
thermo_modify flush yes

run 500000
Neighbor list info ...
  1 neighbor list requests
  update every 20 steps, delay 0 steps, check no
  max neighbors/atom: 2000, page size: 100000
  master list distance cutoff = 2.8
  ghost atom cutoff = 2.8
  binsize = 1.4 -> bins = 7 7 7
Memory usage per processor = 3.32306 Mbytes
Step Press Volume Temp 
       0   -3.8137666          625            3 
    2000    5.1160384          625    1.7547895 
    4000     4.879138          625    1.7713615 
    6000    5.2482444          625    1.7687822 
    8000    4.8771749          625    1.8539717 
   10000    5.2957081          625     1.812253 
   12000    5.2711635          625    1.8467092 
   14000    5.4396125          625    1.8437391 
   16000    5.5592271          625    1.8446046 
   18000    5.8535274          625    1.8448979 
   20000    5.2052427          625    1.9547403 
   22000    6.2517985          625    1.8337375 
   24000    5.8549432          625    1.9178518 
   26000    5.2796386          625    2.0591729 
   28000    6.1520587          625     1.939264 
   30000    6.1571197          625    1.9842765 
   32000    6.0248693          625    2.0328811 
   34000    5.8582027          625    2.1203249 
   36000    6.6467038          625    2.0338569 
   38000    6.4606665          625    2.1034737 
   40000    6.4390015          625    2.1460618 
   42000    6.4951395          625    2.1758964 
   44000    6.9160658          625    2.1477141 
   46000    6.7685378          625    2.2192879 
   48000    6.6888303          625    2.2688172 
   50000    6.1649509          625    2.3771142 
   52000    7.0104466          625    2.2842127 
   54000    6.8691283          625    2.3261179 
   56000    6.8723824          625    2.3705863 
   58000     7.008061          625    2.3951662 
   60000    7.6643892          625    2.3195686 
   62000    7.5983997          625     2.363447 
   64000    8.0076276          625     2.365661 
   66000    7.8583578          625    2.3644115 
   68000    8.3366987          625    2.3403503 
   70000    7.5811073          625    2.5206035 
   72000    7.8719424          625    2.5050302 
   74000    7.2924571          625    2.6111936 
   76000    7.4844996          625    2.5888346 
   78000    7.9246124          625    2.5457101 
   80000    8.1751938          625    2.5343876 
   82000    7.6312865          625     2.656681 
   84000    7.9546106          625    2.6337413 
   86000    8.1043959          625      2.64578 
   88000    7.9438655          625    2.6913613 
   90000      8.53112          625    2.5900395 
   92000    8.4563019          625    2.6533573 
   94000    8.7240228          625     2.598319 
   96000    8.6045277          625    2.6197105 
   98000    8.3660326          625    2.6916501 
  100000    8.6951953          625    2.6809486 
  102000    8.4407966          625    2.7322133 
  104000    8.8530045          625    2.6782139 
  106000    9.1872537          625    2.6256579 
  108000    8.4064593          625    2.7642894 
  110000    8.8534239          625    2.7094204 
  112000    8.8200274          625    2.7064292 
  114000    8.2690902          625    2.8117813 
  116000    8.7196168          625    2.7552943 
  118000    8.4388166          625    2.8111711 
  120000    8.5526463          625    2.8019096 
  122000    8.6684425          625    2.8062707 
  124000    8.7811116          625    2.7956643 
  126000    8.6162826          625    2.7950752 
  128000    8.7036462          625    2.8251107 
  130000    8.7334437          625    2.8319585 
  132000    8.2709761          625    2.8754936 
  134000     8.896229          625    2.7704414 
  136000    9.3656109          625    2.6942795 
  138000    9.0757467          625     2.751392 
  140000    8.3712703          625    2.9202986 
  142000    8.9467041          625    2.7918922 
  144000    8.8508053          625    2.8400224 
  146000    8.6565191          625    2.8463884 
  148000    9.4871662          625    2.7065891 
  150000    8.7029339          625    2.8636055 
  152000    9.4353694          625    2.7176381 
  154000     8.789116          625    2.8276637 
  156000    8.6544989          625    2.8698465 
  158000    8.9906745          625    2.7892416 
  160000    8.4248183          625    2.8942696 
  162000    8.5402399          625    2.8863375 
  164000    8.9854163          625    2.8057031 
  166000    8.6453802          625    2.8567097 
  168000    9.3981507          625    2.7220087 
  170000    9.5366574          625    2.7050679 
  172000    8.9101262          625    2.8162438 
  174000    9.0197068          625    2.7780492 
  176000    9.0653453          625    2.7870822 
  178000    9.4785999          625    2.7023479 
  180000     9.113436          625    2.7934752 
  182000    8.9306651          625    2.7987406 
  184000    9.1676507          625      2.77404 
  186000    8.9800976          625    2.8243276 
  188000      8.92175          625    2.8050938 
  190000    8.6967002          625    2.8453159 
  192000    9.0586422          625    2.8005242 
  194000    8.5613302          625    2.9060555 
  196000    9.4937297          625    2.7134213 
  198000    8.6858286          625    2.8662172 
  200000    8.8080999          625    2.8217007 
  202000    9.0731586          625     2.802001 
  204000    9.1180706          625    2.7828451 
  206000    8.7775582          625    2.8061788 
  208000    9.4500751          625    2.6870688 
  210000    8.7759746          625    2.8250585 
  212000    8.4546416          625    2.8869325 
  214000    8.5557132          625    2.8618924 
  216000    8.5712725          625    2.8720226 
  218000    8.8771637          625    2.8335035 
  220000    8.7638373          625    2.8397657 
  222000     9.051923          625    2.7943564 
  224000    8.2065471          625    2.9107842 
  226000    8.8397068          625    2.8273556 
  228000    9.1644943          625     2.739165 
  230000    8.8265368          625    2.8344357 
  232000    9.3007388          625    2.7132451 
  234000    9.1351202          625    2.7577279 
  236000    8.7402165          625    2.8299841 
  238000    9.5563322          625    2.6983715 
  240000    9.1530299          625    2.7845001 
  242000    8.6396371          625    2.8365422 
  244000    8.7648487          625     2.830373 
  246000    8.6022512          625    2.8543611 
  248000     8.746379          625    2.8383432 
  250000    8.9154746          625    2.7925165 
  252000    8.8446485          625    2.8067464 
  254000    8.8263764          625     2.809375 
  256000    9.2820569          625    2.7246582 
  258000    9.1432372          625     2.727386 
  260000     8.621117          625    2.8353163 
  262000    8.6684029          625    2.8360726 
  264000    9.0584772          625    2.7702566 
  266000    8.6975065          625    2.8388028 
  268000    8.6932926          625    2.8347265 
  270000    8.6627132          625    2.8445338 
  272000    8.6490268          625    2.8289888 
  274000    8.4701664          625    2.8603816 
  276000    8.8270277          625    2.8074211 
  278000    9.0218017          625    2.7572232 
  280000    8.7682001          625    2.8186632 
  282000    8.5340499          625    2.8292496 
  284000    9.3291953          625    2.7303416 
  286000    8.5665682          625    2.8532148 
  288000    8.7674567          625     2.790676 
  290000    9.5025454          625    2.6759776 
  292000    8.8851193          625    2.7906232 
  294000    8.6544765          625    2.7898756 
  296000    8.8533061          625     2.788213 
  298000    9.2232021          625    2.7338903 
  300000    8.6290708          625    2.8521494 
  302000    9.2248177          625    2.7230095 
  304000    8.6165865          625    2.8401208 
  306000    8.5547983          625    2.8111992 
  308000    9.0133661          625    2.7831442 
  310000    8.9874133          625    2.7517287 
  312000     9.134463          625    2.7452815 
  314000     9.007489          625    2.7601917 
  316000    8.9397695          625    2.7688024 
  318000    9.2731607          625    2.7293613 
  320000    8.7195642          625    2.8042441 
  322000     8.912368          625    2.7583442 
  324000    9.0635237          625    2.7380677 
  326000    8.6259648          625    2.8229936 
  328000    8.7678173          625    2.7992439 
  330000    8.9454552          625    2.7610818 
  332000    8.8967177          625    2.7831041 
  334000    8.9515278          625    2.7801198 
  336000    8.1950701          625    2.8945566 
  338000    8.7706104          625    2.7886091 
  340000    8.6997779          625    2.8052779 
  342000    8.8718856          625    2.7824125 
  344000    8.7006857          625    2.7725746 
  346000    8.7065638          625    2.8155329 
  348000    8.5579528          625    2.8127061 
  350000    8.6681871          625    2.8007189 
  352000    9.1352999          625    2.7035523 
  354000    9.2027483          625    2.7000086 
  356000    8.7203706          625    2.7942739 
  358000    8.9249624          625    2.7308802 
  360000    9.0753729          625    2.7208141 
  362000    8.7180256          625    2.7944024 
  364000    7.9843385          625    2.9255776 
  366000    8.6764223          625    2.7896488 
  368000     9.316309          625    2.6749255 
  370000    8.5296049          625    2.8182318 
  372000    8.7882264          625    2.7748411 
  374000    8.8091101          625    2.7706643 
  376000    9.3947683          625    2.6633607 
  378000    8.9383791          625    2.7278816 
  380000    9.2809844          625    2.6808927 
  382000     8.473926          625    2.8122111 
  384000    8.4575055          625    2.8293026 
  386000    9.3740164          625    2.6638741 
  388000    9.0505586          625    2.7457161 
  390000    9.3658204          625    2.6842113 
  392000    8.3716438          625    2.8296619 
  394000    9.1167591          625    2.7295529 
  396000    8.6375461          625    2.8055777 
  398000    8.4089097          625    2.8555217 
  400000      8.89015          625    2.7209788 
  402000    8.8369939          625    2.7511679 
  404000    9.3277557          625    2.6596553 
  406000    9.2660743          625    2.6965456 
  408000    8.6834228          625    2.7726565 
  410000    8.2940216          625     2.878119 
  412000    8.7029344          625    2.7641793 
  414000    8.8635556          625    2.7419883 
  416000    9.3818797          625    2.6409648 
  418000    8.1447617          625     2.885576 
  420000     9.016377          625    2.7340799 
  422000    8.6987944          625    2.7994295 
  424000    8.4847842          625     2.820801 
  426000    8.8543739          625    2.7811705 
  428000     8.751641          625    2.7921523 
  430000    9.0390522          625    2.7316897 
  432000    9.0522806          625    2.7146559 
  434000    9.0987077          625    2.7153623 
  436000    8.5274734          625    2.7947388 
  438000    9.0209399          625    2.7325232 
  440000    8.5592134          625     2.804393 
  442000    9.0559858          625    2.7397542 
  444000    8.8422583          625     2.751383 
  446000    8.7453019          625    2.7489041 
  448000    9.0550498          625    2.7130162 
  450000    8.3772816          625     2.819072 
  452000    8.5199143          625    2.8164949 
  454000    8.9015811          625    2.7222174 
  456000    8.4680805          625    2.7836769 
  458000    8.6566665          625     2.783765 
  460000    8.8484705          625    2.7496929 
  462000    9.3520466          625     2.638889 
  464000    8.9255628          625    2.7270814 
  466000    8.9689148          625    2.7114906 
  468000    8.6083753          625    2.7929201 
  470000    8.7338018          625    2.7514511 
  472000    8.8332266          625    2.7454491 
  474000    8.6880745          625    2.7689943 
  476000    8.6610143          625    2.7905776 
  478000    8.9344871          625    2.7393351 
  480000    8.8586932          625    2.7158766 
  482000    8.6534072          625    2.7855004 
  484000     9.125765          625    2.6694257 
  486000     8.968228          625    2.7309743 
  488000    9.3147188          625    2.6203612 
  490000    8.6451342          625    2.7679534 
  492000    9.0454827          625    2.7000685 
  494000    9.0251121          625    2.6965364 
  496000    7.9919239          625    2.8920996 
  498000    8.4379897          625    2.8159477 
  500000    9.0307048          625    2.7262602 
Loop time of 159.809 on 1 procs for 500000 steps with 500 atoms

Performance: 1351609.718 tau/day, 3128.726 timesteps/s
96.6% CPU use with 1 MPI tasks x no OpenMP threads

MPI task timing breakdown:
Section |  min time  |  avg time  |  max time  |%varavg| %total
---------------------------------------------------------------
Pair    | 130.79     | 130.79     | 130.79     |   0.0 | 81.84
Neigh   | 18.616     | 18.616     | 18.616     |   0.0 | 11.65
Comm    | 5.3441     | 5.3441     | 5.3441     |   0.0 |  3.34
Output  | 0.034443   | 0.034443   | 0.034443   |   0.0 |  0.02
Modify  | 4.0634     | 4.0634     | 4.0634     |   0.0 |  2.54
Other   |            | 0.9578     |            |       |  0.60

Nlocal:    500 ave 500 max 500 min
Histogram: 1 0 0 0 0 0 0 0 0 0
Nghost:    1776 ave 1776 max 1776 min
Histogram: 1 0 0 0 0 0 0 0 0 0
Neighs:    18083 ave 18083 max 18083 min
Histogram: 1 0 0 0 0 0 0 0 0 0

Total # of neighbors = 18083
Ave neighs/atom = 36.166
Neighbor list builds = 25000
Dangerous builds not checked
Total wall time: 0:02:39
