LAMMPS (19 Oct 2016)
# equation of state for LJ

variable temp equal 3
variable rho  equal 0.93

units lj
atom_style atomic

lattice    fcc ${rho}
lattice    fcc 0.93
Lattice spacing in x,y,z = 1.62627 1.62627 1.62627
region box block 0 5 0 5 0 5
create_box 1 box
Created orthogonal box = (0 0 0) to (8.13134 8.13134 8.13134)
  1 by 1 by 1 MPI processor grid
create_atoms 1 box
Created 500 atoms
mass       1 1.0

pair_style lj/cut 2.5
pair_coeff 1 1 1.0 1.0 2.5

velocity   all create ${temp} 87287
velocity   all create 3 87287

neighbor   0.3 bin
neigh_modify every 20 delay 0 check no

fix        1 all nvt temp ${temp} ${temp} 100
fix        1 all nvt temp 3 ${temp} 100
fix        1 all nvt temp 3 3 100
dump       1 all custom 70000 dump_t${temp}_r${rho}.lammpstrj id type x y z
dump       1 all custom 70000 dump_t3_r${rho}.lammpstrj id type x y z
dump       1 all custom 70000 dump_t3_r0.93.lammpstrj id type x y z
thermo     2000
thermo_style  custom step press vol temp
thermo_modify flush yes

run 500000
Neighbor list info ...
  1 neighbor list requests
  update every 20 steps, delay 0 steps, check no
  max neighbors/atom: 2000, page size: 100000
  master list distance cutoff = 2.8
  ghost atom cutoff = 2.8
  binsize = 1.4 -> bins = 6 6 6
Memory usage per processor = 3.32155 Mbytes
Step Press Volume Temp 
       0     -2.58144    537.63441            3 
    2000    8.6742681    537.63441    1.4100699 
    4000    8.4763088    537.63441    1.4233158 
    6000    8.3672569    537.63441    1.4962316 
    8000     8.744267    537.63441    1.4880743 
   10000    8.9349182    537.63441    1.4842737 
   12000    8.9644554    537.63441    1.5073689 
   14000    8.9712621    537.63441    1.5293999 
   16000    8.8285899    537.63441    1.5853968 
   18000    8.6497003    537.63441     1.662333 
   20000    9.1341165    537.63441     1.627876 
   22000    9.0568073    537.63441    1.6773168 
   24000     10.18097    537.63441    1.5637101 
   26000    9.9919192    537.63441    1.6370606 
   28000    9.2789897    537.63441     1.792029 
   30000     9.804942    537.63441    1.7457014 
   32000    10.381355    537.63441    1.7386897 
   34000    10.416298    537.63441    1.7805909 
   36000      11.2069    537.63441    1.7119054 
   38000    10.696724    537.63441    1.8348749 
   40000     10.80032    537.63441    1.8849447 
   42000    11.137239    537.63441    1.8808916 
   44000    10.998578    537.63441    1.9741269 
   46000     11.02941    537.63441     2.019972 
   48000    11.542758    537.63441    2.0085223 
   50000    11.452305    537.63441    2.0750777 
   52000    11.297694    537.63441    2.1487827 
   54000    12.035461    537.63441    2.0761756 
   56000    12.149047    537.63441    2.1290347 
   58000    12.612218    537.63441     2.102369 
   60000    12.302114    537.63441    2.2090942 
   62000    12.988841    537.63441    2.1595707 
   64000    12.758261    537.63441    2.2599028 
   66000    12.645343    537.63441    2.3323224 
   68000    13.126309    537.63441    2.3015709 
   70000    13.808813    537.63441    2.2613967 
   72000    13.640964    537.63441      2.31757 
   74000    13.488421    537.63441    2.4069865 
   76000    14.408733    537.63441    2.3012864 
   78000    13.815929    537.63441    2.4602488 
   80000    13.989285    537.63441    2.4740702 
   82000    14.216167    537.63441    2.4775802 
   84000    14.377961    537.63441    2.5279546 
   86000    13.798147    537.63441    2.6272102 
   88000    14.396123    537.63441    2.5784543 
   90000    14.322385    537.63441      2.64812 
   92000    14.816236    537.63441    2.6279399 
   94000    15.287921    537.63441    2.5800267 
   96000    15.112472    537.63441     2.645749 
   98000    15.224569    537.63441    2.6482005 
  100000    15.115278    537.63441    2.7067125 
  102000    15.041195    537.63441    2.7503014 
  104000    15.022448    537.63441    2.7945141 
  106000    15.341246    537.63441    2.7744255 
  108000    15.836667    537.63441    2.7129623 
  110000    15.633644    537.63441    2.7917602 
  112000    15.830761    537.63441    2.7856233 
  114000    16.284094    537.63441    2.7092755 
  116000    15.695224    537.63441    2.8704646 
  118000    16.218345    537.63441    2.7719169 
  120000    15.702855    537.63441    2.8786531 
  122000    16.143333    537.63441    2.8411815 
  124000    15.356407    537.63441    2.9926493 
  126000    16.881137    537.63441    2.7565148 
  128000    16.837336    537.63441     2.769157 
  130000    15.963668    537.63441    2.9354461 
  132000    15.912414    537.63441    2.9466218 
  134000    16.348915    537.63441    2.8797791 
  136000    16.372989    537.63441    2.8966213 
  138000    16.310901    537.63441     2.905123 
  140000    16.376216    537.63441    2.9104647 
  142000    16.119059    537.63441     2.964187 
  144000    16.793904    537.63441    2.8709931 
  146000    16.682261    537.63441    2.8846889 
  148000    16.347912    537.63441    2.9340578 
  150000     16.17227    537.63441    2.9692488 
  152000    15.733306    537.63441    3.0271782 
  154000    16.196419    537.63441    2.9578799 
  156000    16.379633    537.63441    2.9248679 
  158000      16.5988    537.63441    2.9048524 
  160000    16.723992    537.63441    2.8885145 
  162000    16.812139    537.63441    2.9098561 
  164000     17.01403    537.63441    2.8487848 
  166000    16.298854    537.63441    2.9613111 
  168000     16.28067    537.63441     2.969341 
  170000    16.598946    537.63441    2.9139628 
  172000    16.159033    537.63441    3.0003456 
  174000    16.608123    537.63441    2.8999573 
  176000    15.872908    537.63441     3.017381 
  178000    16.545441    537.63441     2.917941 
  180000    15.870782    537.63441    2.9863998 
  182000    16.199166    537.63441    2.9596169 
  184000    15.979587    537.63441    2.9866266 
  186000    16.614692    537.63441    2.9032365 
  188000    15.890655    537.63441    2.9988147 
  190000    15.703808    537.63441    3.0386794 
  192000    15.932853    537.63441    2.9811396 
  194000     16.53541    537.63441     2.905505 
  196000    15.984408    537.63441    2.9623608 
  198000    15.624736    537.63441    3.0500727 
  200000    15.955493    537.63441    2.9736612 
  202000    16.795985    537.63441    2.8408557 
  204000    16.602073    537.63441    2.8729137 
  206000    16.447798    537.63441    2.8917706 
  208000     16.67693    537.63441    2.8575874 
  210000    15.771425    537.63441    2.9794738 
  212000     16.20338    537.63441    2.9011343 
  214000    15.960178    537.63441    2.9706203 
  216000    17.358539    537.63441    2.7355688 
  218000     16.58283    537.63441    2.8643837 
  220000    16.666019    537.63441    2.8435318 
  222000    16.102039    537.63441    2.9345294 
  224000    15.945214    537.63441    2.9611486 
  226000    16.090357    537.63441    2.9432611 
  228000     15.81185    537.63441    2.9901132 
  230000    16.418834    537.63441    2.8900698 
  232000    16.094667    537.63441    2.9118511 
  234000    16.713816    537.63441    2.8435629 
  236000    16.773818    537.63441    2.8419936 
  238000    16.097869    537.63441    2.9229691 
  240000    16.313002    537.63441     2.884401 
  242000    15.741779    537.63441    2.9934676 
  244000    16.701456    537.63441    2.8334433 
  246000    17.139835    537.63441    2.7855724 
  248000    16.091385    537.63441    2.9356945 
  250000    16.444086    537.63441    2.8762415 
  252000    15.836141    537.63441    2.9798238 
  254000    15.505605    537.63441    3.0309932 
  256000    16.566579    537.63441    2.8555748 
  258000    16.547954    537.63441    2.8412355 
  260000    16.339935    537.63441    2.8923319 
  262000     15.85219    537.63441    2.9849747 
  264000    17.060197    537.63441    2.7601288 
  266000    16.045677    537.63441    2.9503325 
  268000     16.62037    537.63441    2.8391933 
  270000    17.085774    537.63441    2.7681979 
  272000     15.99311    537.63441    2.9454737 
  274000    16.649962    537.63441    2.8364908 
  276000    16.036042    537.63441    2.9345261 
  278000    16.246856    537.63441    2.9079181 
  280000    16.658564    537.63441    2.8367636 
  282000    16.740244    537.63441    2.8181398 
  284000    16.250462    537.63441    2.8870634 
  286000    16.245888    537.63441    2.9060917 
  288000    16.053483    537.63441    2.9276063 
  290000    16.791669    537.63441    2.8029851 
  292000    16.318428    537.63441    2.8801497 
  294000    16.377508    537.63441    2.8957687 
  296000    16.273643    537.63441     2.872959 
  298000    16.118259    537.63441      2.91685 
  300000    16.256075    537.63441    2.9177862 
  302000    16.226668    537.63441    2.8685947 
  304000    16.320865    537.63441    2.8851403 
  306000    16.025959    537.63441    2.9278572 
  308000    16.280362    537.63441    2.8872793 
  310000    16.265871    537.63441    2.8817853 
  312000    16.176106    537.63441    2.8894379 
  314000    15.726112    537.63441    2.9726954 
  316000     16.12578    537.63441    2.8943764 
  318000    15.913721    537.63441     2.946151 
  320000    16.578977    537.63441    2.8334582 
  322000    16.016954    537.63441    2.9098111 
  324000    16.604076    537.63441    2.8068001 
  326000    16.641016    537.63441    2.8244049 
  328000    15.929299    537.63441    2.9459181 
  330000    15.968688    537.63441    2.9465824 
  332000     16.41956    537.63441    2.8532853 
  334000     15.98949    537.63441    2.9325034 
  336000     16.19768    537.63441    2.9013709 
  338000    16.224854    537.63441    2.8754262 
  340000    16.828126    537.63441    2.7805466 
  342000    16.004799    537.63441    2.9175334 
  344000    16.259754    537.63441    2.8950397 
  346000    15.984407    537.63441    2.9225139 
  348000    16.673414    537.63441    2.7996896 
  350000    16.338167    537.63441    2.8721712 
  352000    16.208904    537.63441    2.9048403 
  354000    15.796873    537.63441    2.9339164 
  356000    16.376044    537.63441    2.8538926 
  358000    16.615777    537.63441    2.8204378 
  360000     16.50745    537.63441    2.8256149 
  362000    17.121039    537.63441     2.732537 
  364000    16.185868    537.63441    2.8799363 
  366000    16.194675    537.63441    2.9013939 
  368000    16.095091    537.63441    2.8997796 
  370000    15.949291    537.63441    2.9069536 
  372000    16.274892    537.63441    2.8662844 
  374000    16.934643    537.63441    2.7669366 
  376000    16.154332    537.63441    2.8903111 
  378000    15.650226    537.63441    2.9642378 
  380000     16.30068    537.63441    2.8448733 
  382000    16.398508    537.63441    2.8269425 
  384000     15.61425    537.63441    2.9384047 
  386000    16.109105    537.63441    2.8913738 
  388000    16.233606    537.63441    2.8533408 
  390000    16.515988    537.63441    2.8161279 
  392000    16.343879    537.63441    2.8295923 
  394000     16.66099    537.63441    2.7946243 
  396000    16.078354    537.63441    2.8891467 
  398000    16.193035    537.63441    2.8475145 
  400000    16.174131    537.63441    2.8611341 
  402000    15.606211    537.63441    2.9690889 
  404000    15.922591    537.63441    2.8864388 
  406000    16.429811    537.63441    2.8173312 
  408000    15.779244    537.63441    2.9248618 
  410000    16.078862    537.63441    2.8756132 
  412000    16.370194    537.63441    2.8256989 
  414000    16.366518    537.63441    2.8332868 
  416000    15.483421    537.63441     2.972631 
  418000    15.759829    537.63441    2.9247712 
  420000    15.577039    537.63441      2.93294 
  422000    16.307546    537.63441    2.8576888 
  424000    15.582105    537.63441     2.938176 
  426000    16.927672    537.63441    2.7351662 
  428000    16.325651    537.63441    2.8214077 
  430000    15.294739    537.63441    2.9948584 
  432000    16.331617    537.63441    2.8340273 
  434000    15.333012    537.63441    2.9912293 
  436000    16.128982    537.63441    2.8469447 
  438000    15.703854    537.63441    2.9376337 
  440000    16.011052    537.63441    2.8780051 
  442000    16.370536    537.63441     2.830819 
  444000    16.125445    537.63441    2.8422867 
  446000    15.486344    537.63441    2.9370137 
  448000    16.159006    537.63441    2.8455882 
  450000     15.48941    537.63441    2.9514169 
  452000    15.754968    537.63441    2.9019474 
  454000    15.977247    537.63441     2.871573 
  456000    16.608355    537.63441    2.7645094 
  458000    15.503868    537.63441    2.9361679 
  460000    15.946398    537.63441    2.8548077 
  462000    15.896386    537.63441    2.8953175 
  464000    16.050992    537.63441    2.8559267 
  466000    15.952295    537.63441    2.8558143 
  468000    15.982748    537.63441    2.8511821 
  470000    15.599263    537.63441    2.9205825 
  472000    16.413479    537.63441    2.7879737 
  474000    16.157047    537.63441     2.843698 
  476000    15.405105    537.63441    2.9632756 
  478000    15.453922    537.63441    2.9196836 
  480000    15.569365    537.63441    2.9167802 
  482000    16.207648    537.63441    2.8240938 
  484000    15.745892    537.63441    2.8874611 
  486000    16.966016    537.63441    2.6794971 
  488000    15.379154    537.63441    2.9424983 
  490000    16.392892    537.63441    2.7786149 
  492000    15.799173    537.63441    2.8826734 
  494000    15.956098    537.63441     2.847182 
  496000    15.844827    537.63441     2.868049 
  498000    15.618261    537.63441    2.8954501 
  500000    15.843166    537.63441    2.8526967 
Loop time of 194.084 on 1 procs for 500000 steps with 500 atoms

Performance: 1112918.046 tau/day, 2576.199 timesteps/s
96.4% CPU use with 1 MPI tasks x no OpenMP threads

MPI task timing breakdown:
Section |  min time  |  avg time  |  max time  |%varavg| %total
---------------------------------------------------------------
Pair    | 158.97     | 158.97     | 158.97     |   0.0 | 81.91
Neigh   | 23.997     | 23.997     | 23.997     |   nan | 12.36
Comm    | 5.6694     | 5.6694     | 5.6694     |   0.0 |  2.92
Output  | 0.018176   | 0.018176   | 0.018176   |   0.0 |  0.01
Modify  | 4.364      | 4.364      | 4.364      |   0.0 |  2.25
Other   |            | 1.07       |            |       |  0.55

Nlocal:    500 ave 500 max 500 min
Histogram: 1 0 0 0 0 0 0 0 0 0
Nghost:    1924 ave 1924 max 1924 min
Histogram: 1 0 0 0 0 0 0 0 0 0
Neighs:    20979 ave 20979 max 20979 min
Histogram: 1 0 0 0 0 0 0 0 0 0

Total # of neighbors = 20979
Ave neighs/atom = 41.958
Neighbor list builds = 25000
Dangerous builds not checked
Total wall time: 0:03:14
