LAMMPS (19 Oct 2016)
# equation of state for LJ

variable temp equal 3
variable rho  equal 0.91

units lj
atom_style atomic

lattice    fcc ${rho}
lattice    fcc 0.91
Lattice spacing in x,y,z = 1.6381 1.6381 1.6381
region box block 0 5 0 5 0 5
create_box 1 box
Created orthogonal box = (0 0 0) to (8.19048 8.19048 8.19048)
  1 by 1 by 1 MPI processor grid
create_atoms 1 box
Created 500 atoms
mass       1 1.0

pair_style lj/cut 2.5
pair_coeff 1 1 1.0 1.0 2.5

velocity   all create ${temp} 87287
velocity   all create 3 87287

neighbor   0.3 bin
neigh_modify every 20 delay 0 check no

fix        1 all nvt temp ${temp} ${temp} 100
fix        1 all nvt temp 3 ${temp} 100
fix        1 all nvt temp 3 3 100
dump       1 all custom 70000 dump_t${temp}_r${rho}.lammpstrj id type x y z
dump       1 all custom 70000 dump_t3_r${rho}.lammpstrj id type x y z
dump       1 all custom 70000 dump_t3_r0.91.lammpstrj id type x y z
thermo     2000
thermo_style  custom step press vol temp
thermo_modify flush yes

run 500000
Neighbor list info ...
  1 neighbor list requests
  update every 20 steps, delay 0 steps, check no
  max neighbors/atom: 2000, page size: 100000
  master list distance cutoff = 2.8
  ghost atom cutoff = 2.8
  binsize = 1.4 -> bins = 6 6 6
Memory usage per processor = 3.32155 Mbytes
Step Press Volume Temp 
       0   -2.9752689    549.45055            3 
    2000    7.5124899    549.45055    1.5113522 
    4000    7.9988599    549.45055    1.4489956 
    6000    8.0326437    549.45055    1.4895087 
    8000    7.8817767    549.45055    1.5356683 
   10000    8.0599496    549.45055    1.5498568 
   12000    8.2704756    549.45055    1.5437601 
   14000    8.4598216    549.45055     1.557121 
   16000    8.1899011    549.45055    1.6085271 
   18000    8.4825994    549.45055    1.5990925 
   20000    8.8486169    549.45055    1.6033397 
   22000    8.2790037    549.45055    1.7155798 
   24000    8.7146482    549.45055    1.7082499 
   26000    8.9706565    549.45055    1.7220127 
   28000    9.2381366    549.45055    1.7174056 
   30000    9.5764263    549.45055    1.7342384 
   32000    9.5978581    549.45055    1.7615471 
   34000    8.8087162    549.45055    1.9486467 
   36000    9.9089817    549.45055    1.8191471 
   38000    9.3185605    549.45055    1.9795133 
   40000    9.6534755    549.45055    1.9678093 
   42000    10.214585    549.45055     1.952805 
   44000    10.543796    549.45055    1.9333424 
   46000    10.350388    549.45055    2.0219576 
   48000    11.005008    549.45055    1.9714482 
   50000    10.364997    549.45055    2.1357124 
   52000    10.949589    549.45055    2.1009086 
   54000    10.737256    549.45055    2.1665292 
   56000    11.354318    549.45055    2.1339263 
   58000      11.4072    549.45055    2.1718681 
   60000    11.790704    549.45055    2.1570898 
   62000    11.673622    549.45055    2.2584855 
   64000    12.645804    549.45055    2.1641906 
   66000    12.331214    549.45055    2.2528788 
   68000    12.453939    549.45055    2.2895079 
   70000    12.880745    549.45055    2.2876045 
   72000    12.472016    549.45055      2.36886 
   74000    12.541827    549.45055    2.4142227 
   76000    12.968656    549.45055    2.3952146 
   78000    13.026086    549.45055    2.4188896 
   80000    13.143883    549.45055    2.4419763 
   82000    12.766423    549.45055    2.5581116 
   84000    12.630071    549.45055    2.6287442 
   86000    13.696904    549.45055    2.4861535 
   88000    13.375843    549.45055    2.5709654 
   90000     13.97045    549.45055    2.5121955 
   92000    13.587439    549.45055    2.6005715 
   94000    13.357642    549.45055    2.6893789 
   96000    14.150822    549.45055    2.5798405 
   98000    13.702666    549.45055    2.7056545 
  100000    14.334544    549.45055    2.6335972 
  102000    14.228643    549.45055    2.6944155 
  104000    14.109362    549.45055     2.740372 
  106000    14.079195    549.45055    2.7616695 
  108000    14.070921    549.45055    2.8145549 
  110000    14.953857    549.45055    2.6671952 
  112000    14.578091    549.45055    2.7700404 
  114000    15.064915    549.45055    2.6982292 
  116000    14.369428    549.45055    2.8218988 
  118000    13.716059    549.45055       2.9481 
  120000    14.615003    549.45055    2.8449953 
  122000    13.960875    549.45055    2.9443299 
  124000    15.236335    549.45055    2.7927547 
  126000    14.378623    549.45055    2.9265174 
  128000    14.028405    549.45055    2.9914317 
  130000     14.50512    549.45055    2.9131987 
  132000    14.068809    549.45055    3.0184184 
  134000    15.633415    549.45055    2.7685406 
  136000    14.956134    549.45055    2.8741152 
  138000    14.814511    549.45055    2.9036529 
  140000    14.863487    549.45055      2.91452 
  142000    15.061585    549.45055      2.88058 
  144000    15.369241    549.45055    2.8219217 
  146000    14.427185    549.45055    2.9804111 
  148000    14.311502    549.45055    3.0022916 
  150000    15.480364    549.45055    2.8189173 
  152000    15.261842    549.45055    2.8757483 
  154000    15.121543    549.45055    2.8704203 
  156000    14.935375    549.45055    2.9294144 
  158000    14.709974    549.45055    2.9678622 
  160000    15.404856    549.45055    2.8313542 
  162000    13.968254    549.45055    3.0600753 
  164000    15.376637    549.45055    2.8304603 
  166000    15.288534    549.45055    2.8704526 
  168000    14.833441    549.45055    2.9308924 
  170000    15.473548    549.45055    2.8238688 
  172000    14.367036    549.45055    3.0271918 
  174000    15.317029    549.45055    2.8502462 
  176000    14.580801    549.45055    2.9796902 
  178000    15.911856    549.45055    2.7610356 
  180000    14.934391    549.45055    2.9199596 
  182000    15.173461    549.45055     2.875227 
  184000    15.460554    549.45055    2.8129072 
  186000    15.320788    549.45055    2.8475202 
  188000    15.238294    549.45055    2.8713607 
  190000    14.856804    549.45055    2.9262721 
  192000    14.916899    549.45055    2.9032022 
  194000    15.382661    549.45055     2.832922 
  196000    15.101039    549.45055    2.8690545 
  198000    14.593444    549.45055    2.9465539 
  200000     14.76204    549.45055    2.9454519 
  202000    15.726896    549.45055    2.7776046 
  204000    14.696435    549.45055    2.9341094 
  206000    15.158121    549.45055    2.8695843 
  208000    14.353633    549.45055    3.0094893 
  210000    14.639664    549.45055    2.9393389 
  212000    15.059528    549.45055    2.8835119 
  214000    14.675251    549.45055    2.9277308 
  216000    14.286261    549.45055    2.9972798 
  218000    15.015798    549.45055    2.8828271 
  220000    14.927718    549.45055    2.8948685 
  222000    14.395208    549.45055    2.9866848 
  224000    15.586737    549.45055    2.8141621 
  226000    15.587714    549.45055    2.7618968 
  228000    14.720537    549.45055    2.9151728 
  230000    14.594707    549.45055     2.943688 
  232000    15.043552    549.45055    2.8602043 
  234000    14.536778    549.45055    2.9713989 
  236000    14.912514    549.45055    2.8771762 
  238000    14.548758    549.45055    2.9527012 
  240000    14.987819    549.45055     2.871877 
  242000    15.238532    549.45055     2.835825 
  244000    14.749928    549.45055    2.9113908 
  246000     15.59824    549.45055     2.777093 
  248000    14.954687    549.45055    2.8963858 
  250000    14.939504    549.45055    2.8824971 
  252000    15.736387    549.45055    2.7629355 
  254000    14.310583    549.45055    2.9713217 
  256000    15.172172    549.45055     2.817872 
  258000    14.846055    549.45055    2.8854572 
  260000    14.639173    549.45055    2.9171109 
  262000     14.99622    549.45055    2.8786211 
  264000    14.338243    549.45055    2.9685145 
  266000    14.971356    549.45055    2.8805986 
  268000    15.119833    549.45055    2.8318889 
  270000    14.917144    549.45055    2.8688839 
  272000    14.967485    549.45055    2.8739969 
  274000    14.440601    549.45055    2.9471945 
  276000    15.082897    549.45055    2.8482613 
  278000    15.358734    549.45055    2.8137958 
  280000    14.650183    549.45055    2.9171508 
  282000    14.842686    549.45055    2.8871788 
  284000    15.245206    549.45055    2.7986746 
  286000    14.390386    549.45055     2.950281 
  288000    14.808121    549.45055    2.9019781 
  290000    14.542964    549.45055    2.9436596 
  292000    14.436538    549.45055     2.917285 
  294000    15.251159    549.45055    2.8275751 
  296000    15.206738    549.45055    2.8079389 
  298000    15.064315    549.45055    2.8128149 
  300000    15.009543    549.45055     2.839617 
  302000    14.611574    549.45055     2.903644 
  304000    15.468323    549.45055    2.8031948 
  306000    14.613343    549.45055    2.9132522 
  308000    14.898382    549.45055    2.8517469 
  310000    15.577196    549.45055    2.7381007 
  312000    14.905226    549.45055      2.85177 
  314000    15.475167    549.45055    2.7536151 
  316000    15.419192    549.45055    2.7765297 
  318000    14.747546    549.45055    2.8754835 
  320000    14.955481    549.45055    2.8494994 
  322000    15.362423    549.45055    2.7758767 
  324000    15.065618    549.45055    2.8231308 
  326000    14.997448    549.45055     2.833304 
  328000    14.123333    549.45055    2.9888175 
  330000    14.583233    549.45055    2.9103953 
  332000    14.268891    549.45055    2.9440646 
  334000    15.046062    549.45055    2.7976879 
  336000    15.433474    549.45055    2.7724957 
  338000    14.589537    549.45055    2.9099098 
  340000     14.33149    549.45055     2.941971 
  342000    14.280362    549.45055     2.934065 
  344000    14.974192    549.45055     2.831536 
  346000    14.852071    549.45055    2.8627932 
  348000    14.836285    549.45055    2.8768188 
  350000    15.153425    549.45055    2.8074978 
  352000    14.559077    549.45055    2.8697635 
  354000    15.312953    549.45055    2.7776885 
  356000    14.066224    549.45055    2.9648309 
  358000     15.56199    549.45055    2.7433152 
  360000    14.744515    549.45055    2.8785586 
  362000    14.934841    549.45055     2.844124 
  364000     15.20775    549.45055    2.7772472 
  366000    14.710688    549.45055    2.8793691 
  368000    15.044396    549.45055    2.8198804 
  370000    14.790033    549.45055    2.8694192 
  372000    15.161348    549.45055    2.7926826 
  374000    14.386486    549.45055    2.9109437 
  376000    14.487835    549.45055     2.901827 
  378000    15.287739    549.45055    2.7544679 
  380000    14.072477    549.45055    2.9898983 
  382000     14.74474    549.45055    2.8470859 
  384000    14.843977    549.45055    2.8313156 
  386000    14.541532    549.45055    2.8791264 
  388000    14.629215    549.45055    2.8685688 
  390000     14.09636    549.45055    2.9642203 
  392000    14.909483    549.45055    2.7956351 
  394000     14.11628    549.45055    2.9616954 
  396000     14.98236    549.45055    2.8055465 
  398000    14.883107    549.45055    2.8387967 
  400000    14.654408    549.45055    2.8676313 
  402000    14.282544    549.45055    2.9236959 
  404000    14.935657    549.45055    2.8231271 
  406000    14.764632    549.45055    2.8582013 
  408000      14.9491    549.45055    2.8223788 
  410000    15.044239    549.45055    2.7859892 
  412000     15.05058    549.45055     2.796237 
  414000    14.569069    549.45055    2.8613436 
  416000    14.671995    549.45055    2.8418614 
  418000    14.427435    549.45055    2.8975658 
  420000    14.840666    549.45055    2.8296121 
  422000    15.084575    549.45055    2.7882555 
  424000    13.980039    549.45055    2.9711253 
  426000    15.210026    549.45055    2.7635065 
  428000    15.107235    549.45055    2.7951944 
  430000    15.146017    549.45055    2.7778478 
  432000    13.698918    549.45055    3.0117842 
  434000    14.779153    549.45055    2.8339209 
  436000    15.080269    549.45055    2.7799594 
  438000    14.706042    549.45055    2.8152794 
  440000    15.223958    549.45055    2.7572565 
  442000    15.043623    549.45055     2.787188 
  444000    14.480896    549.45055    2.8596997 
  446000    14.468176    549.45055    2.8733817 
  448000    14.982101    549.45055    2.7994091 
  450000     14.35227    549.45055    2.9188682 
  452000    14.247398    549.45055    2.9097496 
  454000    15.501334    549.45055    2.7018932 
  456000    15.210827    549.45055    2.7572561 
  458000    14.443703    549.45055    2.8559306 
  460000    14.202224    549.45055    2.9119972 
  462000    14.980966    549.45055    2.7629129 
  464000    14.856631    549.45055    2.8082552 
  466000    14.632171    549.45055    2.8251733 
  468000    14.862533    549.45055    2.7984285 
  470000    14.707425    549.45055    2.8226883 
  472000    15.286105    549.45055    2.7541769 
  474000    14.526132    549.45055    2.8419287 
  476000    14.931728    549.45055    2.7941411 
  478000    14.588725    549.45055    2.8486843 
  480000    13.652549    549.45055    2.9840679 
  482000    14.710186    549.45055    2.8113194 
  484000     14.81555    549.45055    2.7964865 
  486000    14.719294    549.45055    2.8035895 
  488000    14.650662    549.45055    2.7986548 
  490000    14.608336    549.45055    2.8315457 
  492000    15.767166    549.45055    2.6516727 
  494000    14.273166    549.45055    2.8793923 
  496000     14.91949    549.45055     2.791966 
  498000    14.598714    549.45055    2.8260147 
  500000     14.33599    549.45055    2.8664661 
Loop time of 191.996 on 1 procs for 500000 steps with 500 atoms

Performance: 1125024.288 tau/day, 2604.223 timesteps/s
93.3% CPU use with 1 MPI tasks x no OpenMP threads

MPI task timing breakdown:
Section |  min time  |  avg time  |  max time  |%varavg| %total
---------------------------------------------------------------
Pair    | 155.46     | 155.46     | 155.46     |   0.0 | 80.97
Neigh   | 24.718     | 24.718     | 24.718     |   0.0 | 12.87
Comm    | 6.0844     | 6.0844     | 6.0844     |   0.0 |  3.17
Output  | 0.028605   | 0.028605   | 0.028605   |   0.0 |  0.01
Modify  | 4.6082     | 4.6082     | 4.6082     |   0.0 |  2.40
Other   |            | 1.1        |            |       |  0.57

Nlocal:    500 ave 500 max 500 min
Histogram: 1 0 0 0 0 0 0 0 0 0
Nghost:    1894 ave 1894 max 1894 min
Histogram: 1 0 0 0 0 0 0 0 0 0
Neighs:    20492 ave 20492 max 20492 min
Histogram: 1 0 0 0 0 0 0 0 0 0

Total # of neighbors = 20492
Ave neighs/atom = 40.984
Neighbor list builds = 25000
Dangerous builds not checked
Total wall time: 0:03:12
