LAMMPS (19 Oct 2016)
# equation of state for LJ

variable temp equal 3
variable rho  equal 0.56

units lj
atom_style atomic

lattice    fcc ${rho}
lattice    fcc 0.56
Lattice spacing in x,y,z = 1.92586 1.92586 1.92586
region box block 0 5 0 5 0 5
create_box 1 box
Created orthogonal box = (0 0 0) to (9.62928 9.62928 9.62928)
  1 by 1 by 1 MPI processor grid
create_atoms 1 box
Created 500 atoms
mass       1 1.0

pair_style lj/cut 2.5
pair_coeff 1 1 1.0 1.0 2.5

velocity   all create ${temp} 87287
velocity   all create 3 87287

neighbor   0.3 bin
neigh_modify every 20 delay 0 check no

fix        1 all nvt temp ${temp} ${temp} 100
fix        1 all nvt temp 3 ${temp} 100
fix        1 all nvt temp 3 3 100
dump       1 all custom 70000 dump_t${temp}_r${rho}.lammpstrj id type x y z
dump       1 all custom 70000 dump_t3_r${rho}.lammpstrj id type x y z
dump       1 all custom 70000 dump_t3_r0.56.lammpstrj id type x y z
thermo     2000
thermo_style  custom step press vol temp
thermo_modify flush yes

run 500000
Neighbor list info ...
  1 neighbor list requests
  update every 20 steps, delay 0 steps, check no
  max neighbors/atom: 2000, page size: 100000
  master list distance cutoff = 2.8
  ghost atom cutoff = 2.8
  binsize = 1.4 -> bins = 7 7 7
Memory usage per processor = 3.2901 Mbytes
Step Press Volume Temp 
       0   -1.7780655    892.85714            3 
    2000    2.4059171    892.85714     2.614272 
    4000    2.6496046    892.85714    2.5283966 
    6000    2.6316812    892.85714    2.4910458 
    8000    2.6460487    892.85714    2.4822953 
   10000    2.3337384    892.85714    2.5164504 
   12000    2.6578729    892.85714    2.4769043 
   14000    2.2473269    892.85714    2.5303354 
   16000    2.5528065    892.85714    2.4939502 
   18000    2.7451205    892.85714    2.4438907 
   20000    2.4285222    892.85714    2.4772683 
   22000    2.7863954    892.85714    2.4017153 
   24000    2.1950104    892.85714    2.5059641 
   26000    2.5029392    892.85714    2.4208549 
   28000    2.4689544    892.85714    2.4542049 
   30000    2.4565844    892.85714     2.481916 
   32000    2.5759453    892.85714    2.4369764 
   34000    2.4605124    892.85714    2.4858653 
   36000    2.5185344    892.85714    2.5023653 
   38000    2.4112391    892.85714    2.4807212 
   40000    2.0854656    892.85714    2.5678257 
   42000    2.6768172    892.85714    2.4716037 
   44000    2.7803727    892.85714    2.4216123 
   46000    2.6365103    892.85714    2.4470191 
   48000    2.6480671    892.85714    2.4567857 
   50000    2.6045604    892.85714    2.4937864 
   52000    2.8170808    892.85714    2.5019018 
   54000    2.2249325    892.85714    2.5868102 
   56000    2.4441169    892.85714    2.5330362 
   58000    2.6367898    892.85714     2.540504 
   60000    2.6593355    892.85714    2.5175674 
   62000    2.6940147    892.85714    2.5114805 
   64000    2.8863403    892.85714    2.4940183 
   66000    2.8758152    892.85714    2.5339901 
   68000    2.8273077    892.85714    2.5381375 
   70000      2.72664    892.85714    2.5421394 
   72000    2.6074352    892.85714     2.596912 
   74000    2.6811478    892.85714     2.536193 
   76000    2.3832562    892.85714    2.6415796 
   78000    2.5296999    892.85714    2.6350747 
   80000    2.5775401    892.85714    2.6317527 
   82000    2.8373626    892.85714    2.5566029 
   84000    2.7002001    892.85714    2.6020903 
   86000    2.9810292    892.85714    2.5846759 
   88000    2.6350289    892.85714    2.6216906 
   90000    3.1299607    892.85714    2.5495997 
   92000    2.6976336    892.85714    2.6429495 
   94000    2.6475355    892.85714    2.6362383 
   96000    2.8296415    892.85714    2.6500298 
   98000    2.6929058    892.85714    2.6395015 
  100000    2.5718672    892.85714    2.6925314 
  102000    2.8692076    892.85714    2.5929643 
  104000    2.1892823    892.85714     2.754487 
  106000    2.9207815    892.85714    2.5801697 
  108000    2.7826605    892.85714    2.6650864 
  110000    2.7067248    892.85714    2.7096673 
  112000    2.6759972    892.85714    2.6772931 
  114000    2.8625422    892.85714    2.6534727 
  116000    2.8930536    892.85714    2.6810758 
  118000    2.3296842    892.85714    2.7355636 
  120000    2.4357286    892.85714    2.7415543 
  122000    2.5474863    892.85714     2.730252 
  124000    2.9395708    892.85714    2.6406968 
  126000    2.8900701    892.85714    2.6836688 
  128000    2.9333976    892.85714    2.6117042 
  130000    2.7635888    892.85714    2.7294757 
  132000    2.9448459    892.85714    2.6781272 
  134000    2.8884397    892.85714    2.6939832 
  136000    2.8855412    892.85714    2.6676436 
  138000    2.5645268    892.85714    2.7056571 
  140000    2.6644725    892.85714    2.7254949 
  142000     3.189719    892.85714    2.6443582 
  144000    2.6488507    892.85714    2.7333424 
  146000    2.6131657    892.85714    2.7437798 
  148000     2.831861    892.85714    2.7055468 
  150000    2.6666243    892.85714    2.7439167 
  152000    2.8715188    892.85714    2.6759403 
  154000    2.9444754    892.85714    2.7191025 
  156000    2.7706724    892.85714    2.7071794 
  158000    2.6382661    892.85714    2.7738276 
  160000    2.7657413    892.85714    2.7365524 
  162000    2.8501212    892.85714    2.7153177 
  164000    2.5173608    892.85714     2.746373 
  166000    3.0365886    892.85714    2.6503569 
  168000    2.6942619    892.85714    2.7183192 
  170000    3.0220807    892.85714    2.7066337 
  172000    3.0886126    892.85714    2.6283336 
  174000    2.9731607    892.85714     2.665719 
  176000    2.7483123    892.85714    2.7247651 
  178000    2.9062128    892.85714    2.7250463 
  180000    2.7471208    892.85714    2.7284719 
  182000    3.1228059    892.85714    2.7063048 
  184000    2.6004208    892.85714    2.7827046 
  186000    2.9158324    892.85714    2.6697467 
  188000    3.1272641    892.85714    2.6670008 
  190000    2.9472467    892.85714    2.6635403 
  192000    2.7911596    892.85714    2.6853589 
  194000    2.6486836    892.85714    2.7590334 
  196000     2.880984    892.85714    2.7357687 
  198000    3.0374011    892.85714    2.6693299 
  200000    3.1396079    892.85714    2.6579982 
  202000    2.9092391    892.85714    2.6965086 
  204000    2.9564706    892.85714    2.6950908 
  206000    2.6542168    892.85714    2.7755363 
  208000    3.1955909    892.85714    2.6347369 
  210000    2.8724044    892.85714    2.6934301 
  212000    3.0086822    892.85714    2.6996197 
  214000    2.9551234    892.85714    2.7037255 
  216000    2.8178767    892.85714    2.7292189 
  218000    2.5769651    892.85714    2.7870297 
  220000    3.1609745    892.85714    2.6724875 
  222000    2.6755834    892.85714    2.7610832 
  224000    2.6541295    892.85714    2.7535932 
  226000    2.6807499    892.85714    2.7433889 
  228000    2.8691235    892.85714    2.7117946 
  230000    2.5352169    892.85714    2.7807312 
  232000    2.8298694    892.85714    2.6821282 
  234000    2.6170382    892.85714    2.7629967 
  236000    3.1379075    892.85714    2.6815266 
  238000    2.8162181    892.85714    2.7110629 
  240000    2.5339459    892.85714    2.7748643 
  242000    2.8474446    892.85714    2.6861854 
  244000    3.0165239    892.85714    2.6961694 
  246000    3.0569068    892.85714      2.68656 
  248000    3.0589964    892.85714    2.6712779 
  250000    2.7372691    892.85714    2.7641234 
  252000    3.2788098    892.85714    2.6379029 
  254000    2.6528371    892.85714    2.7432987 
  256000     3.119307    892.85714    2.6717302 
  258000     3.074438    892.85714    2.6923123 
  260000    2.8594514    892.85714     2.749594 
  262000    2.7954763    892.85714    2.7216442 
  264000    2.8814632    892.85714    2.7314268 
  266000    3.2756286    892.85714    2.6591882 
  268000    2.9464055    892.85714    2.7037417 
  270000    2.6346631    892.85714    2.7950736 
  272000    2.8419688    892.85714    2.7325668 
  274000    2.8338983    892.85714    2.7561941 
  276000    2.7716357    892.85714    2.7820107 
  278000    2.8909859    892.85714    2.7263722 
  280000    3.0677343    892.85714    2.6787666 
  282000    3.0590293    892.85714    2.6789909 
  284000    3.1052028    892.85714    2.6970703 
  286000    3.0486119    892.85714    2.7298899 
  288000    2.8293082    892.85714    2.7079536 
  290000    2.9381276    892.85714    2.7247272 
  292000    2.7735132    892.85714    2.7454631 
  294000    3.1235055    892.85714    2.6962733 
  296000    2.9944816    892.85714    2.7210388 
  298000    2.9624494    892.85714    2.7099899 
  300000      3.19351    892.85714    2.6368308 
  302000    2.6937895    892.85714    2.7610761 
  304000    3.1182396    892.85714    2.6873341 
  306000    2.5312029    892.85714    2.8216536 
  308000     3.276792    892.85714    2.6310359 
  310000    2.8855775    892.85714     2.751232 
  312000    2.8709115    892.85714    2.7073648 
  314000    3.0589405    892.85714     2.697522 
  316000    3.1557726    892.85714    2.6804671 
  318000    2.8538887    892.85714    2.7262285 
  320000    3.0164599    892.85714    2.6814466 
  322000    2.5712827    892.85714    2.7711846 
  324000    3.0092656    892.85714    2.7140602 
  326000    2.8967311    892.85714     2.747188 
  328000    2.8271859    892.85714     2.750952 
  330000    2.8708171    892.85714    2.7290555 
  332000    2.8411732    892.85714    2.7236493 
  334000    2.9152777    892.85714    2.7182076 
  336000    2.9510728    892.85714    2.7105431 
  338000     2.630593    892.85714    2.7917297 
  340000    2.9294678    892.85714    2.7101472 
  342000    2.6391118    892.85714    2.7734329 
  344000    2.8925477    892.85714    2.7104829 
  346000    2.9325635    892.85714     2.724041 
  348000    2.7561376    892.85714    2.7713879 
  350000    2.8814688    892.85714    2.7737634 
  352000    3.2950812    892.85714    2.6629884 
  354000    2.9992566    892.85714    2.7015779 
  356000    3.0180586    892.85714    2.7065291 
  358000    2.6043089    892.85714    2.8036085 
  360000    2.7292223    892.85714    2.7428299 
  362000    2.9708568    892.85714    2.7283732 
  364000    2.7089386    892.85714     2.734326 
  366000    2.7030949    892.85714    2.7407158 
  368000    2.7894631    892.85714    2.7512178 
  370000    2.9826732    892.85714    2.6906534 
  372000    2.6905478    892.85714    2.7541368 
  374000    3.0858602    892.85714    2.7105945 
  376000    2.9693587    892.85714    2.6832589 
  378000     3.064349    892.85714     2.690423 
  380000    2.7828109    892.85714    2.7315717 
  382000    3.1564758    892.85714    2.6712654 
  384000    2.7309621    892.85714    2.7540355 
  386000    2.6257733    892.85714    2.7940204 
  388000    2.7588303    892.85714    2.7641268 
  390000    3.4859826    892.85714    2.5916027 
  392000    2.6428681    892.85714    2.7655575 
  394000    2.6313328    892.85714    2.8051615 
  396000    2.7809887    892.85714     2.757366 
  398000    2.7553266    892.85714    2.7396377 
  400000    2.8439335    892.85714    2.7162562 
  402000    2.9341227    892.85714    2.6932016 
  404000    2.8470049    892.85714    2.7575551 
  406000    3.4634487    892.85714    2.5932932 
  408000    3.1963965    892.85714    2.6590482 
  410000    3.0474801    892.85714    2.6981668 
  412000    3.0518401    892.85714    2.7037314 
  414000    3.5960388    892.85714    2.5626777 
  416000    2.9063404    892.85714    2.7251584 
  418000    2.7188837    892.85714    2.7600628 
  420000    3.0028584    892.85714    2.7196278 
  422000     2.714558    892.85714    2.7227425 
  424000    2.7527308    892.85714    2.7384179 
  426000    2.7660007    892.85714    2.7479289 
  428000     3.331337    892.85714    2.6509348 
  430000    2.8552037    892.85714    2.7224582 
  432000    3.1747298    892.85714    2.6872337 
  434000    3.0978402    892.85714    2.6722386 
  436000    2.8158608    892.85714    2.7231648 
  438000    2.6859381    892.85714    2.7716284 
  440000    2.6400707    892.85714    2.7927631 
  442000    2.9657532    892.85714    2.7414131 
  444000    2.9491078    892.85714    2.6790271 
  446000    2.8381699    892.85714    2.7278494 
  448000    2.8766076    892.85714    2.7358088 
  450000    2.7739346    892.85714    2.7659562 
  452000    2.9182789    892.85714    2.7110388 
  454000    2.8571739    892.85714    2.7200035 
  456000    2.9919805    892.85714    2.6819441 
  458000     2.612113    892.85714    2.7894664 
  460000     2.721645    892.85714    2.7462066 
  462000      2.92747    892.85714    2.7137256 
  464000    3.0580574    892.85714    2.7226427 
  466000    3.0062485    892.85714    2.7328019 
  468000    2.9641577    892.85714    2.7150053 
  470000    3.4357219    892.85714    2.5905096 
  472000     3.123314    892.85714    2.6861289 
  474000    2.7643626    892.85714    2.7500864 
  476000    2.9173446    892.85714    2.7500926 
  478000    2.9978477    892.85714    2.7006631 
  480000    2.9522428    892.85714    2.7113889 
  482000    2.8451193    892.85714    2.7157724 
  484000    3.1984738    892.85714     2.656771 
  486000     3.111835    892.85714    2.6581306 
  488000    3.0466504    892.85714     2.697907 
  490000    2.9378859    892.85714    2.6951416 
  492000    2.8540457    892.85714    2.7159204 
  494000    3.0262446    892.85714    2.6915595 
  496000    2.7191991    892.85714     2.793303 
  498000    3.1174636    892.85714    2.6872002 
  500000     2.632906    892.85714    2.7516261 
Loop time of 121.65 on 1 procs for 500000 steps with 500 atoms

Performance: 1775579.978 tau/day, 4110.139 timesteps/s
96.2% CPU use with 1 MPI tasks x no OpenMP threads

MPI task timing breakdown:
Section |  min time  |  avg time  |  max time  |%varavg| %total
---------------------------------------------------------------
Pair    | 94.506     | 94.506     | 94.506     |   0.0 | 77.69
Neigh   | 17.457     | 17.457     | 17.457     |   0.0 | 14.35
Comm    | 4.5959     | 4.5959     | 4.5959     |   0.0 |  3.78
Output  | 0.032887   | 0.032887   | 0.032887   |   0.0 |  0.03
Modify  | 4.2156     | 4.2156     | 4.2156     |   0.0 |  3.47
Other   |            | 0.8428     |            |       |  0.69

Nlocal:    500 ave 500 max 500 min
Histogram: 1 0 0 0 0 0 0 0 0 0
Nghost:    1463 ave 1463 max 1463 min
Histogram: 1 0 0 0 0 0 0 0 0 0
Neighs:    12648 ave 12648 max 12648 min
Histogram: 1 0 0 0 0 0 0 0 0 0

Total # of neighbors = 12648
Ave neighs/atom = 25.296
Neighbor list builds = 25000
Dangerous builds not checked
Total wall time: 0:02:01
