LAMMPS (19 Oct 2016)
# equation of state for LJ

variable temp equal 3
variable rho  equal 0.881

units lj
atom_style atomic

lattice    fcc ${rho}
lattice    fcc 0.881
Lattice spacing in x,y,z = 1.65588 1.65588 1.65588
region box block 0 5 0 5 0 5
create_box 1 box
Created orthogonal box = (0 0 0) to (8.27938 8.27938 8.27938)
  1 by 1 by 1 MPI processor grid
create_atoms 1 box
Created 500 atoms
mass       1 1.0

pair_style lj/cut 2.5
pair_coeff 1 1 1.0 1.0 2.5

velocity   all create ${temp} 87287
velocity   all create 3 87287

neighbor   0.3 bin
neigh_modify every 20 delay 0 check no

fix        1 all nvt temp ${temp} ${temp} 100
fix        1 all nvt temp 3 ${temp} 100
fix        1 all nvt temp 3 3 100
dump       1 all custom 70000 dump_t${temp}_r${rho}.lammpstrj id type x y z
dump       1 all custom 70000 dump_t3_r${rho}.lammpstrj id type x y z
dump       1 all custom 70000 dump_t3_r0.881.lammpstrj id type x y z
thermo     2000
thermo_style  custom step press vol temp
thermo_modify flush yes

run 500000
Neighbor list info ...
  1 neighbor list requests
  update every 20 steps, delay 0 steps, check no
  max neighbors/atom: 2000, page size: 100000
  master list distance cutoff = 2.8
  ghost atom cutoff = 2.8
  binsize = 1.4 -> bins = 6 6 6
Memory usage per processor = 3.32155 Mbytes
Step Press Volume Temp 
       0   -3.3959339    567.53689            3 
    2000    6.8420482    567.53689    1.5382545 
    4000    7.1806027    567.53689    1.4988579 
    6000    7.1077112    567.53689    1.5227527 
    8000    7.1707542    567.53689     1.556711 
   10000    7.4868255    567.53689    1.5638762 
   12000    6.9493756    567.53689    1.6805864 
   14000     7.573768    567.53689    1.6091729 
   16000    7.3381557    567.53689    1.6811134 
   18000    7.5133521    567.53689    1.6909089 
   20000     7.637105    567.53689    1.6921941 
   22000    7.7491387    567.53689    1.7349976 
   24000    7.6866534    567.53689    1.7898536 
   26000    8.0181675    567.53689    1.7826261 
   28000    8.2853413    567.53689    1.7813574 
   30000    8.2379159    567.53689    1.8420694 
   32000    8.2614125    567.53689    1.8909939 
   34000    8.5148771    567.53689    1.9056544 
   36000    8.8211781    567.53689    1.8804807 
   38000    8.8150538    567.53689    1.9483015 
   40000    8.7005787    567.53689    2.0080805 
   42000    8.9309846    567.53689    2.0261704 
   44000    9.2707003    567.53689    2.0331042 
   46000      9.55747    567.53689    2.0647636 
   48000    9.5771648    567.53689    2.0783256 
   50000     9.372457    567.53689    2.1694976 
   52000    9.6478761    567.53689    2.1733141 
   54000     9.475578    567.53689    2.2399279 
   56000      10.6271    567.53689    2.1079932 
   58000    9.9265906    567.53689    2.2583889 
   60000    10.544874    567.53689    2.2167987 
   62000    10.483939    567.53689    2.2922146 
   64000    10.886655    567.53689    2.2606832 
   66000    10.588378    567.53689    2.3314542 
   68000    10.678514    567.53689    2.3885402 
   70000    10.852229    567.53689    2.3861009 
   72000    11.295087    567.53689    2.3858868 
   74000    10.542292    567.53689    2.5217753 
   76000    11.117149    567.53689    2.4844129 
   78000    11.514905    567.53689    2.4604395 
   80000    11.854511    567.53689    2.4313872 
   82000    11.594803    567.53689    2.5265225 
   84000    11.920435    567.53689    2.5126838 
   86000     12.10401    567.53689    2.5244587 
   88000     12.62481    567.53689    2.4659229 
   90000    11.526904    567.53689    2.6684778 
   92000    11.830774    567.53689    2.6640182 
   94000    12.137768    567.53689    2.6621363 
   96000    12.147082    567.53689    2.6750114 
   98000    11.693501    567.53689    2.7971054 
  100000    11.608711    567.53689     2.828839 
  102000    12.721523    567.53689    2.6594815 
  104000     12.22424    567.53689    2.7750093 
  106000    12.645547    567.53689    2.7138914 
  108000     13.16288    567.53689    2.6511218 
  110000    13.275165    567.53689    2.6787743 
  112000    12.720873    567.53689    2.7795148 
  114000    12.535599    567.53689    2.8211327 
  116000    13.041486    567.53689    2.7590248 
  118000     12.69628    567.53689    2.8315006 
  120000    13.019846    567.53689    2.8084877 
  122000    12.516531    567.53689    2.8715198 
  124000    12.858969    567.53689    2.8444741 
  126000    13.227859    567.53689    2.7920157 
  128000    12.354836    567.53689    2.9583868 
  130000    13.269368    567.53689    2.7939005 
  132000     13.48785    567.53689    2.7792286 
  134000    12.350854    567.53689    2.9763592 
  136000    12.968609    567.53689    2.8742181 
  138000    13.443745    567.53689    2.8256877 
  140000    13.223514    567.53689    2.8294748 
  142000    13.070039    567.53689     2.866439 
  144000    12.601183    567.53689    2.9580346 
  146000     13.25002    567.53689    2.8625933 
  148000    12.606336    567.53689    2.9491216 
  150000    12.862211    567.53689    2.9302639 
  152000    13.052542    567.53689    2.8854552 
  154000    13.290674    567.53689    2.8438685 
  156000    12.983021    567.53689    2.8995773 
  158000    13.520436    567.53689    2.8014029 
  160000    13.258516    567.53689    2.8656061 
  162000    13.185736    567.53689    2.8467298 
  164000    13.323541    567.53689    2.8456148 
  166000    13.177559    567.53689    2.8916872 
  168000    13.388891    567.53689    2.8458068 
  170000    13.040193    567.53689    2.8951825 
  172000    12.804955    567.53689    2.9283047 
  174000    13.786019    567.53689    2.7525045 
  176000    13.148042    567.53689    2.8723024 
  178000    12.970977    567.53689     2.888789 
  180000    13.225811    567.53689    2.8557025 
  182000    13.360796    567.53689    2.8248687 
  184000    13.344164    567.53689    2.8146691 
  186000    13.101374    567.53689    2.8576805 
  188000    12.779307    567.53689    2.9183055 
  190000    13.254119    567.53689    2.8508127 
  192000    12.540626    567.53689    2.9551369 
  194000    12.210043    567.53689    3.0163008 
  196000    13.436295    567.53689    2.8078175 
  198000    12.886544    567.53689    2.8800556 
  200000    13.137236    567.53689    2.8807091 
  202000    13.019983    567.53689    2.8996666 
  204000    12.465788    567.53689    2.9550315 
  206000    12.883077    567.53689    2.9066824 
  208000    12.731146    567.53689    2.9283196 
  210000    12.505861    567.53689    2.9529378 
  212000    13.423299    567.53689    2.8306408 
  214000      13.2329    567.53689     2.853187 
  216000    12.650109    567.53689    2.9346343 
  218000    12.941639    567.53689    2.9128907 
  220000    13.483203    567.53689    2.8020927 
  222000    12.138357    567.53689    3.0243359 
  224000    13.215883    567.53689    2.8440664 
  226000    13.025164    567.53689    2.8858979 
  228000     13.20736    567.53689    2.8455202 
  230000    13.022984    567.53689    2.8688856 
  232000    12.983878    567.53689    2.8902138 
  234000    13.227587    567.53689    2.8504376 
  236000    13.147664    567.53689    2.8500395 
  238000    12.844512    567.53689    2.9083483 
  240000    13.068854    567.53689     2.863348 
  242000    12.468829    567.53689    2.9580033 
  244000    13.120806    567.53689    2.8445278 
  246000    12.938073    567.53689    2.8594298 
  248000    13.074216    567.53689    2.8463089 
  250000    13.043231    567.53689    2.8560909 
  252000    13.329788    567.53689    2.8223174 
  254000     13.39416    567.53689    2.7971752 
  256000    13.322652    567.53689    2.8017301 
  258000    13.310327    567.53689    2.8248868 
  260000    13.050695    567.53689    2.8519581 
  262000    13.565053    567.53689      2.77177 
  264000    13.442921    567.53689    2.7922981 
  266000    13.207317    567.53689    2.8226633 
  268000    13.273799    567.53689    2.8251223 
  270000     12.33703    567.53689    2.9605672 
  272000    13.312695    567.53689     2.810193 
  274000    11.770938    567.53689    3.0618519 
  276000    13.160504    567.53689    2.8209186 
  278000    12.988601    567.53689    2.8609649 
  280000    12.949092    567.53689    2.8641435 
  282000     13.74186    567.53689    2.7172615 
  284000    13.286379    567.53689    2.8067141 
  286000     13.10725    567.53689    2.8482223 
  288000    12.831499    567.53689    2.8750152 
  290000     12.94651    567.53689    2.8660997 
  292000    12.094085    567.53689    2.9835978 
  294000    12.981053    567.53689    2.8645765 
  296000    13.049079    567.53689    2.8475719 
  298000    12.967481    567.53689    2.8598235 
  300000    13.089852    567.53689     2.819571 
  302000    11.897735    567.53689    3.0461422 
  304000    13.391547    567.53689    2.7850929 
  306000    12.733548    567.53689    2.8818317 
  308000    12.751975    567.53689    2.8866118 
  310000    13.308701    567.53689    2.8046902 
  312000    12.722926    567.53689    2.9060004 
  314000    13.440381    567.53689    2.7721815 
  316000    12.839153    567.53689    2.8706508 
  318000    12.763264    567.53689    2.8781986 
  320000    13.384167    567.53689    2.7744249 
  322000    13.578236    567.53689    2.7256866 
  324000    12.742336    567.53689    2.8762798 
  326000    13.673672    567.53689    2.7269204 
  328000    14.193301    567.53689    2.6372712 
  330000    12.364808    567.53689    2.9383911 
  332000    12.883692    567.53689    2.8713643 
  334000    13.003854    567.53689    2.8475666 
  336000    12.689616    567.53689    2.8766223 
  338000    13.058023    567.53689    2.8504304 
  340000    13.533186    567.53689    2.7480283 
  342000    12.806993    567.53689    2.8756275 
  344000    12.461519    567.53689    2.9151487 
  346000    13.151384    567.53689    2.7985388 
  348000    12.786124    567.53689    2.8451009 
  350000     13.73624    567.53689    2.7000535 
  352000    12.958168    567.53689    2.8311897 
  354000    13.118814    567.53689    2.7971013 
  356000    12.941296    567.53689    2.8361012 
  358000    12.543355    567.53689    2.9022661 
  360000     13.02531    567.53689    2.8149861 
  362000    12.950905    567.53689    2.8391192 
  364000    12.916212    567.53689    2.8389589 
  366000    12.889235    567.53689    2.8311138 
  368000    13.055386    567.53689    2.7970266 
  370000    12.337133    567.53689     2.949983 
  372000    12.065668    567.53689    2.9802459 
  374000     12.97682    567.53689    2.8463527 
  376000    12.460705    567.53689    2.9170933 
  378000    12.667211    567.53689    2.8813338 
  380000    13.190282    567.53689    2.7656086 
  382000    13.174855    567.53689     2.788631 
  384000    13.171155    567.53689    2.7862609 
  386000     12.62134    567.53689    2.8663854 
  388000    12.623413    567.53689    2.8737123 
  390000    12.890803    567.53689    2.8183679 
  392000    12.829996    567.53689    2.8454678 
  394000    13.947199    567.53689    2.6557801 
  396000    13.040895    567.53689    2.7786831 
  398000    13.281002    567.53689    2.7738863 
  400000    13.165686    567.53689     2.787367 
  402000    13.031143    567.53689    2.7794766 
  404000    12.736829    567.53689    2.8231139 
  406000    12.931376    567.53689    2.7875583 
  408000    12.691661    567.53689    2.8490121 
  410000    11.995242    567.53689    2.9749606 
  412000    12.756705    567.53689    2.8410375 
  414000    12.507408    567.53689    2.8622348 
  416000    13.670925    567.53689    2.6836332 
  418000    12.498696    567.53689    2.8651539 
  420000    12.980176    567.53689     2.808316 
  422000    12.992195    567.53689    2.7767682 
  424000    12.260866    567.53689    2.9086853 
  426000     13.59802    567.53689    2.6921866 
  428000    13.166435    567.53689     2.756071 
  430000    12.799984    567.53689    2.8250743 
  432000    13.121415    567.53689    2.7617176 
  434000    12.760181    567.53689    2.8323103 
  436000    12.957483    567.53689    2.7876268 
  438000    12.808426    567.53689    2.8153363 
  440000    12.839092    567.53689     2.815222 
  442000    12.849688    567.53689    2.8042815 
  444000    13.111894    567.53689    2.7551599 
  446000     12.80175    567.53689    2.7974294 
  448000    12.998966    567.53689    2.7857766 
  450000      13.6956    567.53689    2.6735545 
  452000    12.677697    567.53689    2.8097003 
  454000    12.907729    567.53689    2.7806676 
  456000       12.887    567.53689    2.7955301 
  458000     12.19023    567.53689    2.8798446 
  460000    12.995727    567.53689    2.7713459 
  462000    12.756413    567.53689    2.8158851 
  464000    12.113791    567.53689    2.9341237 
  466000    12.477976    567.53689    2.8546883 
  468000    13.050203    567.53689    2.7648453 
  470000    13.320184    567.53689    2.7233458 
  472000      12.4567    567.53689    2.8311437 
  474000    12.330528    567.53689    2.8653218 
  476000    12.786286    567.53689    2.8001855 
  478000    12.681562    567.53689    2.8301466 
  480000    12.534812    567.53689    2.8304624 
  482000    12.903335    567.53689    2.7907101 
  484000    12.482195    567.53689    2.8494474 
  486000    13.058098    567.53689    2.7546997 
  488000    13.195784    567.53689    2.7222745 
  490000    13.300293    567.53689    2.7038732 
  492000    13.000497    567.53689    2.7682691 
  494000    12.961285    567.53689    2.7676435 
  496000    12.382703    567.53689    2.8487542 
  498000    13.091817    567.53689    2.7296447 
  500000    12.757148    567.53689    2.7920773 
Loop time of 177.176 on 1 procs for 500000 steps with 500 atoms

Performance: 1219127.837 tau/day, 2822.055 timesteps/s
96.7% CPU use with 1 MPI tasks x no OpenMP threads

MPI task timing breakdown:
Section |  min time  |  avg time  |  max time  |%varavg| %total
---------------------------------------------------------------
Pair    | 143.72     | 143.72     | 143.72     |   0.0 | 81.12
Neigh   | 22.792     | 22.792     | 22.792     |   0.0 | 12.86
Comm    | 5.5798     | 5.5798     | 5.5798     |   0.0 |  3.15
Output  | 0.015013   | 0.015013   | 0.015013   |   0.0 |  0.01
Modify  | 4.0655     | 4.0655     | 4.0655     |   0.0 |  2.29
Other   |            | 0.9993     |            |       |  0.56

Nlocal:    500 ave 500 max 500 min
Histogram: 1 0 0 0 0 0 0 0 0 0
Nghost:    1875 ave 1875 max 1875 min
Histogram: 1 0 0 0 0 0 0 0 0 0
Neighs:    19861 ave 19861 max 19861 min
Histogram: 1 0 0 0 0 0 0 0 0 0

Total # of neighbors = 19861
Ave neighs/atom = 39.722
Neighbor list builds = 25000
Dangerous builds not checked
Total wall time: 0:02:57
