LAMMPS (19 Oct 2016)
# equation of state for LJ

variable temp equal 3
variable rho  equal 0.5

units lj
atom_style atomic

lattice    fcc ${rho}
lattice    fcc 0.5
Lattice spacing in x,y,z = 2 2 2
region box block 0 5 0 5 0 5
create_box 1 box
Created orthogonal box = (0 0 0) to (10 10 10)
  1 by 1 by 1 MPI processor grid
create_atoms 1 box
Created 500 atoms
mass       1 1.0

pair_style lj/cut 2.5
pair_coeff 1 1 1.0 1.0 2.5

velocity   all create ${temp} 87287
velocity   all create 3 87287

neighbor   0.3 bin
neigh_modify every 20 delay 0 check no

fix        1 all nvt temp ${temp} ${temp} 100
fix        1 all nvt temp 3 ${temp} 100
fix        1 all nvt temp 3 3 100
dump       1 all custom 70000 dump_t${temp}_r${rho}.lammpstrj id type x y z
dump       1 all custom 70000 dump_t3_r${rho}.lammpstrj id type x y z
dump       1 all custom 70000 dump_t3_r0.5.lammpstrj id type x y z
thermo     2000
thermo_style  custom step press vol temp
thermo_modify flush yes

run 500000
Neighbor list info ...
  1 neighbor list requests
  update every 20 steps, delay 0 steps, check no
  max neighbors/atom: 2000, page size: 100000
  master list distance cutoff = 2.8
  ghost atom cutoff = 2.8
  binsize = 1.4 -> bins = 8 8 8
Memory usage per processor = 3.29189 Mbytes
Step Press Volume Temp 
       0   -1.1548052         1000            3 
    2000     2.304873         1000    2.7489924 
    4000    1.9946226         1000    2.7890994 
    6000    1.8849572         1000    2.7486722 
    8000    2.2916625         1000     2.629214 
   10000    2.2355189         1000    2.6416549 
   12000    1.9332156         1000    2.6699137 
   14000    2.2215201         1000     2.592473 
   16000    2.0006932         1000     2.611572 
   18000    2.2858569         1000    2.5948106 
   20000     2.128716         1000    2.6258779 
   22000    1.8234959         1000    2.6313451 
   24000    2.0237568         1000    2.5894499 
   26000     1.945841         1000    2.5871611 
   28000     2.257052         1000    2.5341131 
   30000    2.0007233         1000    2.5461361 
   32000    2.1713924         1000    2.5347075 
   34000    2.0963968         1000    2.5132216 
   36000    2.2316532         1000    2.5028032 
   38000    2.3127437         1000    2.4962787 
   40000    2.2835042         1000    2.4956622 
   42000     1.763887         1000    2.6218169 
   44000    2.0144528         1000    2.5362412 
   46000    2.0245295         1000    2.5086777 
   48000    2.0469981         1000    2.5225218 
   50000    2.0670238         1000    2.5803594 
   52000    2.0776953         1000    2.5428607 
   54000    1.9195925         1000    2.5770457 
   56000    1.8920167         1000    2.5788637 
   58000    1.9380691         1000    2.5913468 
   60000    2.3555227         1000    2.4879919 
   62000    1.9240931         1000    2.5963432 
   64000    2.2082454         1000    2.5314154 
   66000    2.0341183         1000    2.5761411 
   68000    2.0766479         1000    2.6113135 
   70000    2.3702989         1000     2.508326 
   72000     1.954604         1000    2.5745834 
   74000    2.2111399         1000     2.562375 
   76000    2.2526237         1000     2.521403 
   78000    1.9772864         1000    2.6016044 
   80000    2.0711379         1000     2.588913 
   82000    2.4919641         1000    2.5126833 
   84000    2.3003062         1000    2.5638611 
   86000    2.0321297         1000    2.6195334 
   88000    2.4700938         1000    2.5372737 
   90000    2.1215997         1000    2.6235126 
   92000    1.6764288         1000    2.7068741 
   94000    2.5272959         1000    2.5066772 
   96000    2.1143671         1000    2.6343016 
   98000    2.0921932         1000    2.6332398 
  100000    2.1412159         1000    2.6198757 
  102000    2.0601262         1000    2.6772872 
  104000    2.0484486         1000    2.6583117 
  106000    1.8547952         1000    2.6763431 
  108000    2.2918974         1000    2.6645152 
  110000    2.1270076         1000    2.6623379 
  112000    2.2531592         1000    2.6298357 
  114000    2.3752627         1000    2.6168562 
  116000    2.2996991         1000    2.6368911 
  118000    2.3095507         1000    2.6489747 
  120000    2.1293203         1000    2.6832515 
  122000    2.2184298         1000    2.6636352 
  124000    2.4059591         1000    2.5899736 
  126000     2.165255         1000    2.6739037 
  128000    2.1241684         1000    2.6843596 
  130000    2.2767054         1000    2.6425189 
  132000     1.999998         1000    2.7258207 
  134000    2.5069529         1000    2.5833385 
  136000    2.0183377         1000    2.7184432 
  138000    2.3077781         1000    2.6826205 
  140000    2.0002014         1000    2.7416708 
  142000    2.1662614         1000    2.7231834 
  144000    2.2956438         1000    2.6602241 
  146000    2.3575641         1000    2.7035478 
  148000    1.9514264         1000    2.7670436 
  150000    2.2289792         1000    2.7133976 
  152000    2.3413506         1000    2.7031347 
  154000    2.1325922         1000    2.7367698 
  156000    2.4265904         1000    2.6680353 
  158000    2.3781748         1000    2.6513898 
  160000     2.303145         1000    2.7023671 
  162000    1.9022709         1000    2.7819721 
  164000    2.2137602         1000    2.7167322 
  166000    2.2759297         1000    2.7034541 
  168000    2.3014656         1000    2.7025947 
  170000    2.1801405         1000    2.6724006 
  172000    2.2489834         1000    2.7198243 
  174000    1.9009698         1000    2.7771453 
  176000    2.3107891         1000    2.6890428 
  178000    2.3537292         1000    2.7291893 
  180000    2.1172818         1000     2.734891 
  182000    1.8682664         1000    2.7984131 
  184000    2.1507594         1000    2.7441619 
  186000    2.0313171         1000     2.753473 
  188000    2.1658529         1000    2.7213937 
  190000    2.4146067         1000    2.6868423 
  192000    2.1170722         1000    2.7551548 
  194000    2.1879345         1000    2.7265005 
  196000    2.2715478         1000    2.7071724 
  198000    2.1096113         1000    2.7330285 
  200000    2.3500429         1000    2.7070228 
  202000    2.0592398         1000    2.7545527 
  204000    2.0995038         1000    2.7483495 
  206000    2.0661237         1000    2.7951776 
  208000    2.2240087         1000    2.7497517 
  210000    2.0803119         1000    2.7292978 
  212000    1.9574921         1000    2.7959868 
  214000    2.2238937         1000    2.7087685 
  216000    2.3597194         1000    2.6641288 
  218000    1.8191144         1000     2.831231 
  220000    1.9821898         1000    2.7550663 
  222000    2.2623037         1000    2.7503721 
  224000    2.2775343         1000    2.7242697 
  226000    2.1599774         1000    2.7624852 
  228000    2.4827626         1000    2.6720594 
  230000    2.3977796         1000    2.7300265 
  232000    2.2707259         1000    2.7327667 
  234000    2.4921511         1000    2.6796397 
  236000    2.2867358         1000    2.7186829 
  238000    2.2005756         1000    2.7634137 
  240000    2.1723781         1000    2.7606092 
  242000    2.1294873         1000     2.799995 
  244000    2.0761624         1000    2.7469881 
  246000    2.2838685         1000    2.7270388 
  248000    2.2057306         1000    2.7322933 
  250000    2.1011369         1000    2.7511446 
  252000    2.2876315         1000    2.7316859 
  254000    2.3598984         1000     2.706771 
  256000    2.0457252         1000    2.7772208 
  258000    2.3240858         1000    2.7194343 
  260000    2.1463039         1000    2.7536322 
  262000    2.1343492         1000    2.7726882 
  264000    2.4349439         1000    2.7309391 
  266000    2.3786366         1000    2.6703611 
  268000     2.105625         1000    2.7462237 
  270000    2.3809066         1000    2.7120913 
  272000     2.232996         1000    2.7247977 
  274000    2.2453754         1000    2.7601608 
  276000    2.2902728         1000    2.6839093 
  278000    2.5224047         1000    2.6680555 
  280000    2.1953225         1000    2.7471086 
  282000    2.1335363         1000    2.7682377 
  284000    2.2715276         1000    2.7330843 
  286000    2.2071441         1000    2.7071297 
  288000    2.3957763         1000    2.6994207 
  290000    1.9253795         1000    2.7823235 
  292000    2.2558281         1000    2.7464095 
  294000    2.3335282         1000    2.6887558 
  296000    2.3163964         1000    2.7304478 
  298000    2.5008722         1000    2.6955528 
  300000    2.0758041         1000    2.7796356 
  302000    2.2604628         1000    2.7342938 
  304000    2.3600525         1000    2.7179967 
  306000    2.4855874         1000    2.6900644 
  308000    2.1212465         1000    2.7500484 
  310000    2.0999641         1000    2.7583187 
  312000    2.2007407         1000    2.7738063 
  314000    2.3691216         1000    2.6757793 
  316000    2.3173538         1000    2.7526185 
  318000    2.5047145         1000    2.6706952 
  320000    2.2605743         1000    2.7338746 
  322000    2.3336696         1000    2.7296478 
  324000    2.4060523         1000    2.6609853 
  326000    2.2575556         1000    2.7255966 
  328000    2.4678699         1000    2.7027306 
  330000    2.3508226         1000    2.7070548 
  332000    2.1677226         1000    2.7382281 
  334000    2.0663273         1000    2.7693857 
  336000    2.3217209         1000     2.734393 
  338000    1.9916318         1000    2.7649664 
  340000    2.0638375         1000    2.8024774 
  342000    2.0686451         1000    2.7172236 
  344000    2.1651036         1000    2.7501422 
  346000    2.3602723         1000    2.7106075 
  348000    2.3970951         1000    2.6861587 
  350000    1.9564511         1000    2.8168791 
  352000    2.0954135         1000    2.7722096 
  354000    2.0828201         1000    2.7675888 
  356000    2.5466651         1000    2.6886088 
  358000    2.2330824         1000    2.7434878 
  360000    2.3187264         1000    2.6887616 
  362000    2.4543675         1000    2.7094606 
  364000    2.3515889         1000    2.7050868 
  366000    1.9808167         1000     2.792258 
  368000    2.3640709         1000    2.7062988 
  370000    2.0899428         1000    2.7783308 
  372000    2.0320834         1000    2.7755682 
  374000    2.3632917         1000     2.725418 
  376000    2.4015882         1000    2.7147865 
  378000    2.7195978         1000     2.601913 
  380000    2.1804417         1000    2.7387069 
  382000    1.9189632         1000    2.7902114 
  384000    2.5500805         1000    2.6776051 
  386000    2.0579251         1000     2.758006 
  388000    2.1252795         1000    2.7523506 
  390000    2.1959745         1000    2.7571297 
  392000     2.487262         1000     2.715703 
  394000     1.904499         1000    2.8051433 
  396000    2.4804097         1000    2.6642645 
  398000    2.0893373         1000    2.7753813 
  400000    2.2702099         1000    2.7253124 
  402000    2.4834192         1000     2.665576 
  404000    2.3101065         1000    2.6834618 
  406000    2.4128774         1000    2.7028436 
  408000    1.9993423         1000    2.7758991 
  410000    2.1155718         1000    2.7503235 
  412000    2.7217195         1000    2.6354311 
  414000    2.0955322         1000    2.7753847 
  416000    2.0611154         1000    2.7560957 
  418000    2.2378477         1000     2.739495 
  420000    2.2941199         1000    2.7289189 
  422000    2.5290476         1000    2.6646363 
  424000    2.5577264         1000    2.6715527 
  426000    2.3127129         1000     2.727165 
  428000    2.3402773         1000    2.7075041 
  430000    2.6498114         1000    2.5957642 
  432000     2.417373         1000    2.6967165 
  434000    2.1921378         1000    2.7342078 
  436000     2.348397         1000    2.7278781 
  438000    2.3095111         1000    2.7342695 
  440000    2.3486046         1000    2.7246792 
  442000      2.41949         1000    2.7210994 
  444000    2.0967755         1000    2.7379928 
  446000    2.6446792         1000    2.6772593 
  448000     2.437939         1000    2.6695699 
  450000    2.3013871         1000    2.7464785 
  452000    1.9393534         1000    2.8083084 
  454000    2.1229005         1000    2.7286879 
  456000    2.1727577         1000      2.74704 
  458000    2.2027611         1000    2.7465098 
  460000    2.1357201         1000     2.758512 
  462000    2.4055723         1000    2.6752765 
  464000    2.2710809         1000    2.7353216 
  466000    2.1844833         1000    2.7195225 
  468000    2.1324899         1000     2.745676 
  470000    2.3235519         1000    2.7240574 
  472000    2.3645361         1000     2.726292 
  474000    2.4986351         1000    2.6630634 
  476000    2.0768287         1000    2.7452024 
  478000    2.3858965         1000    2.6970943 
  480000    2.5592908         1000    2.6768978 
  482000    2.3495703         1000    2.6953571 
  484000     2.289931         1000    2.7385337 
  486000    2.0152518         1000    2.7826206 
  488000    2.2423824         1000     2.723173 
  490000    2.2905867         1000     2.719461 
  492000    2.3730573         1000    2.6573313 
  494000     2.139812         1000    2.7672629 
  496000     2.364485         1000    2.7263055 
  498000    2.2866288         1000    2.7527122 
  500000    2.4869977         1000    2.7058085 
Loop time of 109.099 on 1 procs for 500000 steps with 500 atoms

Performance: 1979853.053 tau/day, 4582.993 timesteps/s
96.1% CPU use with 1 MPI tasks x no OpenMP threads

MPI task timing breakdown:
Section |  min time  |  avg time  |  max time  |%varavg| %total
---------------------------------------------------------------
Pair    | 85.427     | 85.427     | 85.427     |   0.0 | 78.30
Neigh   | 14.439     | 14.439     | 14.439     |   0.0 | 13.23
Comm    | 4.3411     | 4.3411     | 4.3411     |   0.0 |  3.98
Output  | 0.0327     | 0.0327     | 0.0327     |   0.0 |  0.03
Modify  | 4.0611     | 4.0611     | 4.0611     |   0.0 |  3.72
Other   |            | 0.7985     |            |       |  0.73

Nlocal:    500 ave 500 max 500 min
Histogram: 1 0 0 0 0 0 0 0 0 0
Nghost:    1429 ave 1429 max 1429 min
Histogram: 1 0 0 0 0 0 0 0 0 0
Neighs:    11299 ave 11299 max 11299 min
Histogram: 1 0 0 0 0 0 0 0 0 0

Total # of neighbors = 11299
Ave neighs/atom = 22.598
Neighbor list builds = 25000
Dangerous builds not checked
Total wall time: 0:01:49
