LAMMPS (19 Oct 2016)
# equation of state for LJ

variable temp equal 3
variable rho  equal 0.79

units lj
atom_style atomic

lattice    fcc ${rho}
lattice    fcc 0.79
Lattice spacing in x,y,z = 1.71716 1.71716 1.71716
region box block 0 5 0 5 0 5
create_box 1 box
Created orthogonal box = (0 0 0) to (8.5858 8.5858 8.5858)
  1 by 1 by 1 MPI processor grid
create_atoms 1 box
Created 500 atoms
mass       1 1.0

pair_style lj/cut 2.5
pair_coeff 1 1 1.0 1.0 2.5

velocity   all create ${temp} 87287
velocity   all create 3 87287

neighbor   0.3 bin
neigh_modify every 20 delay 0 check no

fix        1 all nvt temp ${temp} ${temp} 100
fix        1 all nvt temp 3 ${temp} 100
fix        1 all nvt temp 3 3 100
dump       1 all custom 70000 dump_t${temp}_r${rho}.lammpstrj id type x y z
dump       1 all custom 70000 dump_t3_r${rho}.lammpstrj id type x y z
dump       1 all custom 70000 dump_t3_r0.79.lammpstrj id type x y z
thermo     2000
thermo_style  custom step press vol temp
thermo_modify flush yes

run 500000
Neighbor list info ...
  1 neighbor list requests
  update every 20 steps, delay 0 steps, check no
  max neighbors/atom: 2000, page size: 100000
  master list distance cutoff = 2.8
  ghost atom cutoff = 2.8
  binsize = 1.4 -> bins = 7 7 7
Memory usage per processor = 3.32306 Mbytes
Step Press Volume Temp 
       0   -3.8039443    632.91139            3 
    2000    4.7790783    632.91139     1.801937 
    4000    5.0424046    632.91139    1.7842544 
    6000    4.8660212    632.91139    1.8207375 
    8000    5.1743147    632.91139    1.7873372 
   10000    5.2634055    632.91139    1.8110995 
   12000    5.3265123    632.91139     1.842413 
   14000    5.4967043    632.91139    1.8220664 
   16000    5.9105422    632.91139    1.8054989 
   18000    5.2853389    632.91139    1.9295767 
   20000    5.5153231    632.91139     1.904311 
   22000    6.0082547    632.91139    1.8745739 
   24000    5.2672143    632.91139    2.0086271 
   26000    5.4118891    632.91139    2.0508889 
   28000     5.506887    632.91139    2.0458334 
   30000    5.9192138    632.91139     2.013177 
   32000    5.7229118    632.91139    2.1079074 
   34000    6.1250817    632.91139    2.0604603 
   36000    6.2602001    632.91139    2.0794765 
   38000    5.9211065    632.91139    2.1663785 
   40000    6.1513659    632.91139     2.179493 
   42000    5.8472904    632.91139    2.2912287 
   44000    6.5732624    632.91139    2.1770983 
   46000    6.7516421    632.91139    2.1890827 
   48000    6.5039375    632.91139    2.2755278 
   50000    6.7820017    632.91139    2.2435211 
   52000    6.6300403    632.91139    2.3138904 
   54000    6.3592197    632.91139    2.3936849 
   56000    7.2576453    632.91139    2.3039168 
   58000     6.919502    632.91139    2.3638568 
   60000    7.1354585    632.91139    2.3675783 
   62000    7.4019676    632.91139    2.3836231 
   64000    7.1775108    632.91139    2.4399583 
   66000    7.5070252    632.91139    2.4164778 
   68000    7.1178546    632.91139     2.486378 
   70000    7.4094511    632.91139      2.50109 
   72000    7.6181497    632.91139    2.4657004 
   74000    7.9131949    632.91139    2.4293844 
   76000     7.773039    632.91139    2.4759235 
   78000    7.7336377    632.91139    2.5448269 
   80000    8.0674566    632.91139    2.5184386 
   82000    7.7046502    632.91139    2.5915421 
   84000    8.2899741    632.91139    2.5015864 
   86000    8.1454925    632.91139    2.5787191 
   88000    8.2461585    632.91139    2.5571359 
   90000    7.7060225    632.91139    2.6742961 
   92000    8.1030599    632.91139    2.6311049 
   94000     8.116821    632.91139    2.6471249 
   96000    7.7888587    632.91139    2.7139295 
   98000    8.1716891    632.91139    2.6750783 
  100000    8.6107945    632.91139    2.6019428 
  102000    7.8341951    632.91139    2.7351978 
  104000    8.2335765    632.91139    2.6855912 
  106000    8.0542377    632.91139    2.7268444 
  108000    7.6796993    632.91139    2.8176596 
  110000    7.9528035    632.91139    2.7959253 
  112000    8.2830968    632.91139    2.7548174 
  114000    8.6029284    632.91139    2.6724312 
  116000    8.0635197    632.91139    2.7843186 
  118000      8.71962    632.91139    2.6889882 
  120000    8.4622294    632.91139    2.7330899 
  122000    8.3487828    632.91139    2.7726873 
  124000    8.2278637    632.91139    2.7883374 
  126000    8.7500204    632.91139    2.7180228 
  128000    8.2099328    632.91139    2.8513313 
  130000    8.1972306    632.91139    2.8340516 
  132000    8.6174804    632.91139    2.7335499 
  134000    8.7036824    632.91139    2.7389498 
  136000    8.1054122    632.91139    2.8549831 
  138000    8.7773395    632.91139    2.7522995 
  140000    8.9238675    632.91139    2.7236662 
  142000    8.6705629    632.91139     2.762051 
  144000    8.2470023    632.91139    2.8328339 
  146000    8.1051271    632.91139    2.8731313 
  148000     7.848534    632.91139    2.9113666 
  150000    8.2692644    632.91139    2.8215217 
  152000     8.874055    632.91139    2.7302184 
  154000    8.8771365    632.91139    2.7292358 
  156000    8.5946927    632.91139    2.7974746 
  158000      8.74646    632.91139    2.7598953 
  160000    8.3919738    632.91139    2.8164998 
  162000    8.9910465    632.91139    2.7195146 
  164000    8.6702239    632.91139    2.7755545 
  166000    8.3330342    632.91139    2.8410939 
  168000    8.7412851    632.91139     2.759852 
  170000    8.2822252    632.91139     2.848494 
  172000    8.4920319    632.91139    2.8283971 
  174000    8.0548565    632.91139    2.8947526 
  176000    8.4086034    632.91139    2.8307797 
  178000    8.4436973    632.91139    2.8343153 
  180000    8.3565143    632.91139    2.8348535 
  182000    8.4986688    632.91139    2.8046835 
  184000    8.3797359    632.91139    2.8210317 
  186000    8.3096832    632.91139    2.8293939 
  188000    8.8657126    632.91139    2.7520884 
  190000    8.6861523    632.91139    2.7824602 
  192000    8.3844897    632.91139    2.8401716 
  194000    8.5671296    632.91139    2.7898991 
  196000    8.7453524    632.91139    2.7558952 
  198000    8.1282282    632.91139     2.859312 
  200000     7.891387    632.91139    2.9133869 
  202000    8.5771639    632.91139    2.7908315 
  204000    8.7536205    632.91139    2.7456851 
  206000    8.3811761    632.91139    2.8368864 
  208000    8.0734875    632.91139    2.8640048 
  210000    8.5283516    632.91139    2.8087148 
  212000     8.313893    632.91139    2.8436296 
  214000     8.573768    632.91139    2.7757626 
  216000    8.3309595    632.91139    2.8245993 
  218000    8.3158922    632.91139    2.8227091 
  220000    8.9218201    632.91139    2.7120339 
  222000    8.4112211    632.91139    2.8046463 
  224000    8.3247897    632.91139    2.8197504 
  226000    8.8945452    632.91139    2.7252675 
  228000    8.1024676    632.91139    2.8869108 
  230000    8.8959112    632.91139    2.7091474 
  232000    8.5359266    632.91139    2.7926197 
  234000    8.3854205    632.91139    2.8023633 
  236000    9.1576552    632.91139    2.6850165 
  238000    8.7275862    632.91139     2.745147 
  240000    8.4328621    632.91139    2.8000813 
  242000    8.6514396    632.91139    2.7352655 
  244000     8.421102    632.91139    2.7980599 
  246000    8.3816343    632.91139     2.810769 
  248000     8.668048    632.91139    2.7634293 
  250000    7.9804804    632.91139    2.8882113 
  252000    8.7062014    632.91139     2.739894 
  254000    8.5500683    632.91139     2.782702 
  256000    8.5921892    632.91139    2.7872322 
  258000     8.137541    632.91139    2.8714925 
  260000    8.4483413    632.91139     2.793787 
  262000    9.0076957    632.91139    2.6753204 
  264000    8.5817417    632.91139    2.7620228 
  266000    8.5554178    632.91139    2.7430646 
  268000    7.7076392    632.91139    2.9263014 
  270000    8.4138463    632.91139    2.7916266 
  272000    8.5273666    632.91139    2.7926693 
  274000    8.4442499    632.91139    2.8032569 
  276000     8.386681    632.91139    2.8014094 
  278000    8.4857801    632.91139    2.7871058 
  280000    8.3483887    632.91139    2.8177081 
  282000    8.5340802    632.91139    2.7809123 
  284000    8.0719672    632.91139    2.8745263 
  286000    8.7582221    632.91139    2.7451221 
  288000    8.2840662    632.91139    2.8407306 
  290000    7.7283322    632.91139    2.9090047 
  292000    8.2362735    632.91139    2.7959321 
  294000    8.3555761    632.91139     2.816372 
  296000    8.7173138    632.91139     2.737358 
  298000    8.5760459    632.91139    2.7693162 
  300000    8.4094229    632.91139    2.8081768 
  302000    7.8730424    632.91139    2.8931657 
  304000    8.3152888    632.91139    2.8077282 
  306000    8.5512938    632.91139    2.7550238 
  308000    8.3616452    632.91139    2.8122674 
  310000    8.2626814    632.91139    2.7993282 
  312000    8.6818613    632.91139    2.7448801 
  314000    8.5881789    632.91139    2.7680612 
  316000    8.6164462    632.91139    2.7770673 
  318000    7.8128032    632.91139    2.9005476 
  320000    8.1748482    632.91139    2.8441364 
  322000    8.7242967    632.91139    2.7234018 
  324000    8.1072989    632.91139    2.8256948 
  326000    8.2327106    632.91139    2.8164083 
  328000    8.1642514    632.91139    2.8043594 
  330000    8.7382084    632.91139    2.7052705 
  332000    7.9396972    632.91139    2.8400687 
  334000     8.449447    632.91139    2.7646343 
  336000    8.5756894    632.91139     2.760288 
  338000    8.0622177    632.91139    2.8520962 
  340000     7.800295    632.91139    2.8698705 
  342000    8.2912821    632.91139    2.7928159 
  344000    8.3947423    632.91139    2.7706891 
  346000    8.4784294    632.91139    2.7638959 
  348000    8.7100251    632.91139    2.7046326 
  350000    8.8375511    632.91139    2.6861624 
  352000    8.6529528    632.91139    2.7232113 
  354000     8.793956    632.91139    2.6810989 
  356000    8.7484069    632.91139    2.7047495 
  358000    8.0845226    632.91139    2.8054895 
  360000    9.0419564    632.91139    2.6572185 
  362000    8.3779689    632.91139     2.773436 
  364000    8.3426144    632.91139    2.8072602 
  366000    8.8186974    632.91139     2.711997 
  368000    8.0802107    632.91139    2.8370163 
  370000    8.1171116    632.91139    2.8410755 
  372000    8.5288337    632.91139    2.7484641 
  374000    7.9293243    632.91139    2.8632773 
  376000    7.7724753    632.91139    2.8916202 
  378000    8.5743561    632.91139    2.7466254 
  380000    8.0815566    632.91139    2.8267743 
  382000    7.8144222    632.91139    2.8823015 
  384000    8.4538843    632.91139     2.768317 
  386000    8.5246673    632.91139    2.7400094 
  388000    8.2142273    632.91139    2.7809877 
  390000    8.3951982    632.91139    2.7763004 
  392000    8.2279565    632.91139    2.7891967 
  394000    8.4775296    632.91139     2.758434 
  396000    8.8180163    632.91139    2.6937813 
  398000    9.1562653    632.91139    2.6327274 
  400000    8.1206987    632.91139    2.8199628 
  402000    8.3308629    632.91139    2.7742736 
  404000    8.7367959    632.91139    2.7079768 
  406000    8.4163409    632.91139    2.7617752 
  408000    8.3950892    632.91139    2.7440141 
  410000     8.301968    632.91139    2.7753974 
  412000    8.3651358    632.91139    2.7658627 
  414000    8.5280959    632.91139    2.7188083 
  416000    8.4276014    632.91139    2.7605499 
  418000    9.0614386    632.91139    2.6460858 
  420000    8.4538333    632.91139    2.7519484 
  422000     8.251661    632.91139    2.7903702 
  424000    8.5322066    632.91139    2.7493095 
  426000    8.2721321    632.91139    2.7875865 
  428000     8.412377    632.91139    2.7436243 
  430000    8.5936553    632.91139    2.7251224 
  432000    8.0685484    632.91139    2.8252992 
  434000    8.3752437    632.91139    2.7677742 
  436000    8.1301224    632.91139    2.8142885 
  438000    8.1142929    632.91139    2.8010941 
  440000    8.3750979    632.91139    2.7564473 
  442000     8.212224    632.91139    2.7758158 
  444000    8.4557043    632.91139    2.7434848 
  446000    8.1826539    632.91139    2.7926224 
  448000    7.9343464    632.91139    2.8302422 
  450000     7.913066    632.91139    2.8301337 
  452000    8.3386096    632.91139    2.7817131 
  454000    8.1483046    632.91139    2.7896103 
  456000    8.5300711    632.91139    2.7099947 
  458000    8.5790997    632.91139    2.7225495 
  460000    8.3948702    632.91139    2.7688264 
  462000    8.9256101    632.91139    2.6710297 
  464000    8.0786759    632.91139    2.8091186 
  466000    8.6249601    632.91139     2.726875 
  468000     8.256727    632.91139    2.7777782 
  470000    8.2780524    632.91139    2.7819291 
  472000    8.5475444    632.91139    2.7171422 
  474000    8.0052922    632.91139    2.8358254 
  476000    8.4114972    632.91139    2.7505806 
  478000    8.2941624    632.91139    2.7565565 
  480000    7.7989917    632.91139    2.8741683 
  482000    8.1287662    632.91139    2.7889252 
  484000    8.1231917    632.91139    2.7670741 
  486000    8.2564718    632.91139    2.7715604 
  488000    8.4594343    632.91139     2.752197 
  490000    8.4589211    632.91139    2.7276172 
  492000     8.181557    632.91139    2.7914907 
  494000    8.0992189    632.91139    2.8116202 
  496000    8.4458634    632.91139    2.7491085 
  498000     8.532717    632.91139    2.7024473 
  500000    7.7989675    632.91139    2.8526325 
Loop time of 160.01 on 1 procs for 500000 steps with 500 atoms

Performance: 1349913.259 tau/day, 3124.799 timesteps/s
96.6% CPU use with 1 MPI tasks x no OpenMP threads

MPI task timing breakdown:
Section |  min time  |  avg time  |  max time  |%varavg| %total
---------------------------------------------------------------
Pair    | 130.85     | 130.85     | 130.85     |   0.0 | 81.78
Neigh   | 18.785     | 18.785     | 18.785     |   0.0 | 11.74
Comm    | 5.3109     | 5.3109     | 5.3109     |   0.0 |  3.32
Output  | 0.024408   | 0.024408   | 0.024408   |   0.0 |  0.02
Modify  | 4.1006     | 4.1006     | 4.1006     |   0.0 |  2.56
Other   |            | 0.936      |            |       |  0.58

Nlocal:    500 ave 500 max 500 min
Histogram: 1 0 0 0 0 0 0 0 0 0
Nghost:    1775 ave 1775 max 1775 min
Histogram: 1 0 0 0 0 0 0 0 0 0
Neighs:    17836 ave 17836 max 17836 min
Histogram: 1 0 0 0 0 0 0 0 0 0

Total # of neighbors = 17836
Ave neighs/atom = 35.672
Neighbor list builds = 25000
Dangerous builds not checked
Total wall time: 0:02:40
