LAMMPS (19 Oct 2016)
# equation of state for LJ

variable temp equal 3
variable rho  equal 0.59

units lj
atom_style atomic

lattice    fcc ${rho}
lattice    fcc 0.59
Lattice spacing in x,y,z = 1.89265 1.89265 1.89265
region box block 0 5 0 5 0 5
create_box 1 box
Created orthogonal box = (0 0 0) to (9.46323 9.46323 9.46323)
  1 by 1 by 1 MPI processor grid
create_atoms 1 box
Created 500 atoms
mass       1 1.0

pair_style lj/cut 2.5
pair_coeff 1 1 1.0 1.0 2.5

velocity   all create ${temp} 87287
velocity   all create 3 87287

neighbor   0.3 bin
neigh_modify every 20 delay 0 check no

fix        1 all nvt temp ${temp} ${temp} 100
fix        1 all nvt temp 3 ${temp} 100
fix        1 all nvt temp 3 3 100
dump       1 all custom 70000 dump_t${temp}_r${rho}.lammpstrj id type x y z
dump       1 all custom 70000 dump_t3_r${rho}.lammpstrj id type x y z
dump       1 all custom 70000 dump_t3_r0.59.lammpstrj id type x y z
thermo     2000
thermo_style  custom step press vol temp
thermo_modify flush yes

run 500000
Neighbor list info ...
  1 neighbor list requests
  update every 20 steps, delay 0 steps, check no
  max neighbors/atom: 2000, page size: 100000
  master list distance cutoff = 2.8
  ghost atom cutoff = 2.8
  binsize = 1.4 -> bins = 7 7 7
Memory usage per processor = 3.2901 Mbytes
Step Press Volume Temp 
       0   -2.1018923    847.45763            3 
    2000    3.0572314    847.45763    2.4179833 
    4000    2.7854468    847.45763    2.4352395 
    6000    2.7106139    847.45763    2.4437418 
    8000    2.6178053    847.45763    2.4456849 
   10000    2.7306864    847.45763    2.4214871 
   12000    2.5532413    847.45763    2.4410813 
   14000    2.6618711    847.45763      2.45616 
   16000    2.7477479    847.45763    2.4196464 
   18000    2.7191711    847.45763    2.4431857 
   20000    2.7106936    847.45763    2.4435025 
   22000    2.7480964    847.45763    2.4071488 
   24000    2.7189977    847.45763    2.4156359 
   26000     2.737427    847.45763    2.4463141 
   28000    2.7629569    847.45763    2.4424818 
   30000      2.72485    847.45763    2.4222755 
   32000    2.8202768    847.45763    2.3846707 
   34000    2.5796732    847.45763    2.4730263 
   36000    2.6214782    847.45763     2.466204 
   38000    2.9478341    847.45763    2.4235536 
   40000    2.7564015    847.45763    2.4638128 
   42000    3.0188507    847.45763    2.4358082 
   44000    2.9965582    847.45763    2.4586529 
   46000    2.8403539    847.45763    2.4843782 
   48000    3.0845437    847.45763    2.4577422 
   50000    2.9815428    847.45763     2.500981 
   52000    2.6812695    847.45763    2.5613577 
   54000    2.7261214    847.45763    2.5661364 
   56000    2.6341095    847.45763    2.5580268 
   58000    3.1102704    847.45763    2.4999223 
   60000    3.0121266    847.45763    2.5282559 
   62000    3.1800983    847.45763    2.5039197 
   64000     2.869126    847.45763    2.5488941 
   66000    3.2595362    847.45763    2.4930034 
   68000    2.8576515    847.45763    2.5669966 
   70000    2.8164255    847.45763    2.5743432 
   72000    3.1622265    847.45763    2.5584185 
   74000    2.9810305    847.45763    2.5732473 
   76000    2.7946501    847.45763    2.6665695 
   78000    3.5085718    847.45763    2.5361828 
   80000    2.7797054    847.45763     2.629933 
   82000    2.9411207    847.45763    2.6069925 
   84000    3.0290547    847.45763    2.6517297 
   86000    3.2626481    847.45763    2.5809965 
   88000    2.9306502    847.45763    2.6578505 
   90000    3.2502048    847.45763    2.5881688 
   92000    3.4051433    847.45763    2.5854375 
   94000    3.1558793    847.45763    2.6370263 
   96000    3.3497823    847.45763    2.6104514 
   98000    3.0303141    847.45763    2.6587919 
  100000    3.1356617    847.45763    2.6286387 
  102000     3.481229    847.45763    2.6137482 
  104000    2.8683425    847.45763    2.7158435 
  106000    3.5922148    847.45763    2.5602682 
  108000    3.1899601    847.45763    2.6841861 
  110000    3.0739077    847.45763    2.7030496 
  112000    3.3865031    847.45763    2.6053009 
  114000     3.318657    847.45763    2.6368328 
  116000    3.1731844    847.45763    2.6461482 
  118000    3.2600022    847.45763     2.652242 
  120000    3.3272465    847.45763    2.6359584 
  122000    3.1326492    847.45763    2.7031397 
  124000    3.2884792    847.45763    2.6825705 
  126000    3.1633078    847.45763     2.707133 
  128000    3.5601825    847.45763    2.6492289 
  130000    3.5384613    847.45763    2.6242672 
  132000    2.8696277    847.45763    2.7665375 
  134000    3.3778218    847.45763    2.6604481 
  136000    3.4170502    847.45763    2.7009573 
  138000    3.2881529    847.45763    2.6742909 
  140000    3.5021652    847.45763    2.6039798 
  142000    3.5165399    847.45763    2.6625159 
  144000    3.2252448    847.45763    2.6945608 
  146000    3.4800499    847.45763    2.5947273 
  148000    3.4948054    847.45763    2.6744603 
  150000    3.2707949    847.45763    2.6913777 
  152000    3.0770447    847.45763    2.7346169 
  154000    3.5869886    847.45763    2.6765712 
  156000    3.4612051    847.45763    2.6655201 
  158000     3.255167    847.45763    2.7219646 
  160000    3.0637835    847.45763    2.7627469 
  162000    3.1496094    847.45763    2.7364514 
  164000    3.6749365    847.45763    2.6144041 
  166000     3.227428    847.45763    2.7374669 
  168000    3.8847997    847.45763    2.5872719 
  170000    3.3651432    847.45763    2.7186131 
  172000    3.0565871    847.45763    2.7368507 
  174000    3.4518702    847.45763    2.6724893 
  176000    3.1909727    847.45763    2.7014886 
  178000    3.2025772    847.45763    2.7330672 
  180000    3.1420833    847.45763    2.7686181 
  182000    3.4042871    847.45763    2.7202097 
  184000    3.2711057    847.45763    2.7063016 
  186000    3.4034691    847.45763    2.6693169 
  188000    3.5574167    847.45763    2.6761466 
  190000    3.3662458    847.45763    2.6750346 
  192000    3.3128495    847.45763    2.7146798 
  194000    3.7427181    847.45763    2.5984645 
  196000    3.4734657    847.45763    2.6596328 
  198000    3.3485663    847.45763    2.7013006 
  200000    3.1981098    847.45763     2.729359 
  202000    3.2018825    847.45763     2.732239 
  204000    3.7746827    847.45763    2.5943599 
  206000    3.6915928    847.45763    2.6471134 
  208000    3.5322434    847.45763    2.6830673 
  210000    2.9037717    847.45763    2.7794469 
  212000    3.3817514    847.45763     2.729349 
  214000    3.3877421    847.45763     2.682034 
  216000    3.2945352    847.45763    2.7265176 
  218000    3.3622166    847.45763     2.687691 
  220000    3.4215886    847.45763    2.7428558 
  222000    3.1479089    847.45763    2.7649695 
  224000    3.2737728    847.45763    2.7467559 
  226000    3.1354738    847.45763    2.7243345 
  228000    3.2914064    847.45763    2.7443024 
  230000    3.4670632    847.45763    2.6907037 
  232000    3.4557784    847.45763    2.6582248 
  234000     3.442201    847.45763    2.6845922 
  236000    3.1634479    847.45763    2.7544062 
  238000    3.2377167    847.45763    2.7445232 
  240000    3.1633941    847.45763    2.7429728 
  242000    3.5178795    847.45763    2.6769743 
  244000    3.0325405    847.45763     2.786784 
  246000    3.2983453    847.45763    2.7240802 
  248000    3.4662633    847.45763    2.6916375 
  250000    3.8029787    847.45763    2.6193693 
  252000    2.9331815    847.45763    2.8070549 
  254000    3.2954857    847.45763    2.7272569 
  256000    3.3699273    847.45763    2.6891229 
  258000     3.328219    847.45763    2.6954768 
  260000    3.5301691    847.45763    2.6694438 
  262000     3.378128    847.45763    2.7116977 
  264000    2.9909997    847.45763    2.8202621 
  266000    3.7097328    847.45763    2.6183053 
  268000    3.1956715    847.45763      2.72751 
  270000    3.3006112    847.45763    2.6890118 
  272000    3.5418308    847.45763    2.6543137 
  274000    3.2976964    847.45763    2.7051939 
  276000    3.2648341    847.45763    2.7255832 
  278000    3.1431179    847.45763     2.740313 
  280000    3.2532586    847.45763    2.7445559 
  282000    3.2713327    847.45763    2.7389154 
  284000    3.3451926    847.45763    2.7285114 
  286000    3.2077439    847.45763    2.7126335 
  288000    3.0437032    847.45763    2.7754827 
  290000    3.0438649    847.45763    2.7539411 
  292000    3.4035591    847.45763    2.6957453 
  294000    3.3381902    847.45763    2.7054485 
  296000    3.0949542    847.45763    2.7373328 
  298000    2.9924581    847.45763    2.7841599 
  300000    3.0639646    847.45763    2.7544435 
  302000    3.3489392    847.45763    2.6884683 
  304000    3.3888733    847.45763    2.6945538 
  306000    3.1325988    847.45763     2.741454 
  308000    3.4942016    847.45763    2.6965824 
  310000    3.3563461    847.45763    2.6901397 
  312000    3.2351609    847.45763    2.7392381 
  314000    3.7494164    847.45763    2.6364686 
  316000    3.3649459    847.45763    2.7327115 
  318000    3.2731097    847.45763    2.7127421 
  320000    3.1052122    847.45763     2.793145 
  322000    3.2939737    847.45763    2.7026671 
  324000    3.2398454    847.45763    2.7133427 
  326000    3.1244109    847.45763    2.7547776 
  328000    3.2734152    847.45763    2.7183242 
  330000    3.2641403    847.45763    2.7418282 
  332000    3.2372472    847.45763    2.7638097 
  334000     3.062782    847.45763    2.7593055 
  336000    3.4843772    847.45763    2.6770503 
  338000    3.3051475    847.45763    2.7057205 
  340000     3.339293    847.45763      2.68585 
  342000     3.301626    847.45763     2.717769 
  344000    3.3937057    847.45763    2.7119326 
  346000    3.1601043    847.45763    2.7720046 
  348000    3.5071185    847.45763     2.641496 
  350000    3.6330908    847.45763    2.6565205 
  352000    3.4683119    847.45763    2.6981115 
  354000      3.61152    847.45763     2.679724 
  356000    3.1147068    847.45763    2.7658604 
  358000     3.086863    847.45763    2.7678948 
  360000      3.57698    847.45763    2.7112101 
  362000     3.303611    847.45763    2.7335555 
  364000    3.2834911    847.45763    2.7546657 
  366000    3.2076008    847.45763    2.7760328 
  368000    3.1985929    847.45763    2.7392232 
  370000    3.5225376    847.45763    2.6771094 
  372000    3.7441066    847.45763    2.6202519 
  374000    3.2848631    847.45763    2.7022708 
  376000    3.2476441    847.45763    2.7138354 
  378000    3.2337156    847.45763    2.7626395 
  380000    3.2911225    847.45763    2.6992115 
  382000    3.4002033    847.45763    2.6704573 
  384000     3.613921    847.45763    2.6916483 
  386000    3.1935226    847.45763    2.7429592 
  388000    3.0444898    847.45763     2.778702 
  390000    3.5144008    847.45763    2.6603609 
  392000    2.7263108    847.45763    2.7946106 
  394000    3.3433097    847.45763    2.7152989 
  396000    3.1842423    847.45763    2.7268907 
  398000    3.4194002    847.45763    2.6875653 
  400000    3.5378397    847.45763    2.7163721 
  402000    3.1817889    847.45763    2.7391658 
  404000    3.2756903    847.45763    2.7331758 
  406000    3.1814016    847.45763    2.7443251 
  408000    3.4962762    847.45763    2.6766297 
  410000    3.2437481    847.45763    2.7382524 
  412000    3.5091311    847.45763    2.6717047 
  414000    3.4755964    847.45763    2.6964883 
  416000    3.2853306    847.45763    2.7288852 
  418000    3.0553513    847.45763    2.7492768 
  420000    3.3161958    847.45763    2.7248008 
  422000       3.5834    847.45763    2.6935427 
  424000    3.3076018    847.45763    2.7279268 
  426000    3.3908931    847.45763    2.7067568 
  428000    3.5607065    847.45763    2.6845937 
  430000    3.1754676    847.45763    2.7654416 
  432000    3.3651146    847.45763    2.6747726 
  434000    3.3911539    847.45763    2.7116366 
  436000    3.2099049    847.45763    2.7193513 
  438000    3.6155992    847.45763    2.6623424 
  440000    3.3671878    847.45763    2.6951612 
  442000    3.4797919    847.45763    2.6910006 
  444000    3.4036262    847.45763    2.6942044 
  446000    3.2878082    847.45763    2.6828031 
  448000    3.2973693    847.45763    2.7174051 
  450000    3.1838829    847.45763     2.752497 
  452000    3.3490075    847.45763    2.6950116 
  454000     3.054588    847.45763     2.783357 
  456000    3.2612808    847.45763    2.7090154 
  458000    3.7885966    847.45763    2.6251307 
  460000    3.2005843    847.45763    2.7364921 
  462000    3.3679672    847.45763    2.6804561 
  464000    3.3345516    847.45763    2.7111565 
  466000    3.2140098    847.45763    2.7314243 
  468000    2.8342576    847.45763    2.8035989 
  470000    3.1681895    847.45763     2.763902 
  472000     3.227607    847.45763    2.7438419 
  474000     3.420371    847.45763    2.6920566 
  476000     3.185837    847.45763    2.7293265 
  478000    3.4962045    847.45763    2.7181847 
  480000    3.5801513    847.45763    2.6497865 
  482000    3.5313631    847.45763    2.6752563 
  484000    3.1375265    847.45763     2.753108 
  486000    3.3446393    847.45763    2.7235005 
  488000    3.5865594    847.45763    2.7003816 
  490000    3.2941748    847.45763    2.7411464 
  492000    3.2761561    847.45763    2.7280288 
  494000     3.651373    847.45763    2.6183573 
  496000    3.8317383    847.45763    2.6863952 
  498000     3.341289    847.45763    2.7194858 
  500000    3.2379392    847.45763     2.744514 
Loop time of 124.918 on 1 procs for 500000 steps with 500 atoms

Performance: 1729139.018 tau/day, 4002.637 timesteps/s
96.5% CPU use with 1 MPI tasks x no OpenMP threads

MPI task timing breakdown:
Section |  min time  |  avg time  |  max time  |%varavg| %total
---------------------------------------------------------------
Pair    | 97.84      | 97.84      | 97.84      |   0.0 | 78.32
Neigh   | 17.473     | 17.473     | 17.473     |   0.0 | 13.99
Comm    | 4.6288     | 4.6288     | 4.6288     |   0.0 |  3.71
Output  | 0.023751   | 0.023751   | 0.023751   |   0.0 |  0.02
Modify  | 4.1027     | 4.1027     | 4.1027     |   0.0 |  3.28
Other   |            | 0.8488     |            |       |  0.68

Nlocal:    500 ave 500 max 500 min
Histogram: 1 0 0 0 0 0 0 0 0 0
Nghost:    1509 ave 1509 max 1509 min
Histogram: 1 0 0 0 0 0 0 0 0 0
Neighs:    13305 ave 13305 max 13305 min
Histogram: 1 0 0 0 0 0 0 0 0 0

Total # of neighbors = 13305
Ave neighs/atom = 26.61
Neighbor list builds = 25000
Dangerous builds not checked
Total wall time: 0:02:04
