LAMMPS (19 Oct 2016)
# equation of state for LJ

variable temp equal 3
variable rho  equal 0.88

units lj
atom_style atomic

lattice    fcc ${rho}
lattice    fcc 0.88
Lattice spacing in x,y,z = 1.6565 1.6565 1.6565
region box block 0 5 0 5 0 5
create_box 1 box
Created orthogonal box = (0 0 0) to (8.28252 8.28252 8.28252)
  1 by 1 by 1 MPI processor grid
create_atoms 1 box
Created 500 atoms
mass       1 1.0

pair_style lj/cut 2.5
pair_coeff 1 1 1.0 1.0 2.5

velocity   all create ${temp} 87287
velocity   all create 3 87287

neighbor   0.3 bin
neigh_modify every 20 delay 0 check no

fix        1 all nvt temp ${temp} ${temp} 100
fix        1 all nvt temp 3 ${temp} 100
fix        1 all nvt temp 3 3 100
dump       1 all custom 70000 dump_t${temp}_r${rho}.lammpstrj id type x y z
dump       1 all custom 70000 dump_t3_r${rho}.lammpstrj id type x y z
dump       1 all custom 70000 dump_t3_r0.88.lammpstrj id type x y z
thermo     2000
thermo_style  custom step press vol temp
thermo_modify flush yes

run 500000
Neighbor list info ...
  1 neighbor list requests
  update every 20 steps, delay 0 steps, check no
  max neighbors/atom: 2000, page size: 100000
  master list distance cutoff = 2.8
  ghost atom cutoff = 2.8
  binsize = 1.4 -> bins = 6 6 6
Memory usage per processor = 3.32155 Mbytes
Step Press Volume Temp 
       0   -3.4075181    568.18182            3 
    2000    6.6221285    568.18182    1.5651074 
    4000    7.0819186    568.18182    1.5293297 
    6000    6.8107936    568.18182    1.5782465 
    8000    7.2199496    568.18182    1.5468043 
   10000    6.9930716    568.18182    1.6281707 
   12000     6.979583    568.18182    1.6630522 
   14000    7.4665525    568.18182    1.6217936 
   16000    7.2133049    568.18182    1.6850764 
   18000    7.6365369    568.18182    1.6615718 
   20000    7.6271083    568.18182    1.6823549 
   22000    7.8445125    568.18182    1.7051471 
   24000    7.2467922    568.18182    1.8518872 
   26000      8.03015    568.18182    1.7629185 
   28000    8.3364433    568.18182     1.774233 
   30000    8.2875952    568.18182    1.8291584 
   32000    7.7636214    568.18182    1.9484404 
   34000    8.5617228    568.18182    1.8764895 
   36000    8.2999567    568.18182     1.951928 
   38000     8.480739    568.18182    2.0015523 
   40000    8.8869024    568.18182    1.9873739 
   42000     9.240173    568.18182    1.9609903 
   44000    9.3644649    568.18182    1.9951858 
   46000    9.2071893    568.18182    2.0804534 
   48000    9.6479276    568.18182    2.0614255 
   50000    9.4937754    568.18182     2.126725 
   52000    9.8477122    568.18182    2.1119624 
   54000    10.048509    568.18182    2.1496209 
   56000    9.8530353    568.18182    2.2284099 
   58000    10.383667    568.18182     2.191746 
   60000    9.6399348    568.18182      2.36948 
   62000    10.799857    568.18182    2.2126305 
   64000    10.297767    568.18182    2.3502805 
   66000    10.594175    568.18182    2.3334365 
   68000    10.773795    568.18182    2.3566258 
   70000    11.346018    568.18182    2.3077593 
   72000    11.326733    568.18182    2.3481093 
   74000    11.299641    568.18182    2.3974049 
   76000    11.708024    568.18182    2.3816842 
   78000     11.27704    568.18182    2.5018912 
   80000    11.669981    568.18182    2.4817391 
   82000    11.505025    568.18182    2.5331236 
   84000    12.341772    568.18182    2.4594806 
   86000    11.952702    568.18182    2.5627863 
   88000    11.455183    568.18182    2.6763073 
   90000    12.355501    568.18182    2.5340948 
   92000    12.488249    568.18182    2.5524477 
   94000    12.626006    568.18182    2.5757727 
   96000    11.706569    568.18182     2.747457 
   98000    12.052955    568.18182    2.7143666 
  100000    11.799657    568.18182    2.7922472 
  102000    12.709865    568.18182     2.656354 
  104000    12.404211    568.18182    2.7431276 
  106000    12.652682    568.18182    2.7276041 
  108000    11.998054    568.18182    2.8284773 
  110000    12.691783    568.18182    2.7707315 
  112000    12.194962    568.18182    2.8543752 
  114000     12.65437    568.18182    2.7807319 
  116000    11.880986    568.18182    2.9470442 
  118000     12.46089    568.18182     2.876252 
  120000    12.286115    568.18182    2.9068457 
  122000    12.635907    568.18182    2.8459151 
  124000    13.465824    568.18182    2.7250642 
  126000    13.317083    568.18182    2.7545263 
  128000    12.964489    568.18182    2.8214875 
  130000    12.751623    568.18182    2.8744135 
  132000    13.113882    568.18182    2.8531083 
  134000    13.644044    568.18182    2.7342108 
  136000    13.172665    568.18182    2.8293568 
  138000    12.675837    568.18182    2.8989953 
  140000    12.539128    568.18182    2.9366644 
  142000    12.598335    568.18182    2.9339321 
  144000    13.336202    568.18182    2.8269449 
  146000    12.504737    568.18182    2.9460377 
  148000    13.218635    568.18182    2.8321199 
  150000    13.372818    568.18182    2.8096037 
  152000    13.338132    568.18182    2.8264894 
  154000    12.864639    568.18182    2.9093082 
  156000    13.110675    568.18182    2.8375228 
  158000    13.482975    568.18182    2.8073407 
  160000    13.127476    568.18182    2.8879189 
  162000    12.901724    568.18182    2.8980992 
  164000    12.592669    568.18182    2.9430004 
  166000    13.248179    568.18182    2.8264575 
  168000    12.544047    568.18182    2.9798458 
  170000    13.592942    568.18182    2.7802472 
  172000    12.615932    568.18182    2.9630677 
  174000    12.733534    568.18182    2.9380023 
  176000    13.064307    568.18182    2.8888589 
  178000    12.619556    568.18182    2.9577011 
  180000    13.196975    568.18182    2.8347596 
  182000    13.453975    568.18182    2.8193439 
  184000    12.937602    568.18182    2.8897726 
  186000    13.142044    568.18182    2.8528131 
  188000    12.916412    568.18182    2.8882919 
  190000    12.634766    568.18182    2.9463193 
  192000    12.515976    568.18182    2.9421694 
  194000    12.982176    568.18182    2.8912733 
  196000    13.489892    568.18182    2.8129692 
  198000     12.78975    568.18182    2.9084347 
  200000     13.80998    568.18182    2.7514039 
  202000    13.524538    568.18182    2.8084256 
  204000    12.994139    568.18182    2.8773429 
  206000    12.287676    568.18182    3.0025847 
  208000     13.68264    568.18182    2.7723846 
  210000    13.102667    568.18182    2.8483635 
  212000    12.875516    568.18182    2.9011413 
  214000    13.212635    568.18182    2.8396615 
  216000    13.226487    568.18182    2.8553176 
  218000    12.609957    568.18182    2.9113862 
  220000    13.414822    568.18182     2.823112 
  222000    12.237586    568.18182    2.9830906 
  224000    13.210408    568.18182    2.8366798 
  226000    12.942048    568.18182    2.8734576 
  228000    12.674823    568.18182    2.9095463 
  230000    12.878546    568.18182    2.8878004 
  232000    12.875234    568.18182    2.8741636 
  234000    12.836846    568.18182    2.9031665 
  236000    13.359773    568.18182    2.8157103 
  238000    12.602966    568.18182    2.9359384 
  240000    12.907877    568.18182     2.880811 
  242000    12.945182    568.18182    2.8756121 
  244000    13.307184    568.18182    2.8140529 
  246000    13.041227    568.18182    2.8481356 
  248000    13.156379    568.18182    2.8381739 
  250000    13.795415    568.18182    2.7322055 
  252000    12.778718    568.18182    2.9068257 
  254000    12.800131    568.18182    2.8946941 
  256000    12.915556    568.18182    2.8714385 
  258000    12.393502    568.18182    2.9491944 
  260000    13.223839    568.18182    2.8215101 
  262000    12.454206    568.18182    2.9524236 
  264000    13.042179    568.18182    2.8390081 
  266000    13.356527    568.18182    2.7945666 
  268000    13.024721    568.18182    2.8354327 
  270000    12.903977    568.18182    2.8693355 
  272000    12.945026    568.18182    2.8528995 
  274000    12.509799    568.18182    2.9187118 
  276000    12.528138    568.18182    2.9133079 
  278000    12.280682    568.18182    2.9660532 
  280000    12.756399    568.18182    2.8799883 
  282000    13.022775    568.18182    2.8157421 
  284000    12.658561    568.18182    2.8950222 
  286000    13.358098    568.18182    2.7576048 
  288000     12.97467    568.18182    2.8367522 
  290000    13.177837    568.18182    2.8019841 
  292000     13.23027    568.18182     2.819583 
  294000    12.910252    568.18182     2.860626 
  296000    12.658679    568.18182    2.8748823 
  298000    13.461074    568.18182    2.7765638 
  300000    12.502805    568.18182    2.9096015 
  302000    12.742923    568.18182    2.8750861 
  304000     13.12721    568.18182    2.8040091 
  306000    13.224083    568.18182     2.771775 
  308000    12.887443    568.18182    2.8432646 
  310000    13.143219    568.18182    2.8055482 
  312000    12.869097    568.18182    2.8439505 
  314000    13.344094    568.18182    2.7592752 
  316000    12.953948    568.18182    2.8352729 
  318000    12.136905    568.18182    2.9702881 
  320000    12.470871    568.18182    2.9124884 
  322000     13.29085    568.18182    2.7956944 
  324000    13.580666    568.18182    2.7240345 
  326000    12.656183    568.18182    2.8990556 
  328000    12.910286    568.18182    2.8368069 
  330000    12.778663    568.18182    2.8581428 
  332000    12.462962    568.18182    2.9178521 
  334000    12.599472    568.18182    2.9056917 
  336000    12.893675    568.18182     2.856868 
  338000     12.55394    568.18182    2.8885214 
  340000    12.467019    568.18182    2.9360749 
  342000    13.006233    568.18182    2.8204765 
  344000    12.517306    568.18182    2.8894516 
  346000    13.159954    568.18182    2.7880529 
  348000    12.906563    568.18182    2.8224776 
  350000    12.496049    568.18182    2.8866464 
  352000    12.584663    568.18182    2.8672964 
  354000     12.93801    568.18182    2.8170439 
  356000    12.397633    568.18182    2.9134388 
  358000    12.298222    568.18182    2.9210398 
  360000    12.939858    568.18182    2.8402809 
  362000    13.036418    568.18182    2.8124021 
  364000    12.469669    568.18182    2.9107619 
  366000     13.23956    568.18182     2.779734 
  368000    13.155818    568.18182    2.7847556 
  370000    13.283897    568.18182    2.7956196 
  372000      12.7574    568.18182    2.8619229 
  374000    12.155567    568.18182    2.9598845 
  376000    12.865628    568.18182    2.8185554 
  378000    12.718562    568.18182    2.8438004 
  380000    13.215416    568.18182     2.755055 
  382000     13.32055    568.18182    2.7637548 
  384000    12.932471    568.18182    2.8066988 
  386000    12.771196    568.18182    2.8426393 
  388000    12.618487    568.18182    2.8562919 
  390000    12.413523    568.18182    2.9031711 
  392000    12.805088    568.18182    2.8374001 
  394000    13.826644    568.18182    2.6700029 
  396000     13.31799    568.18182    2.7479365 
  398000    12.914245    568.18182    2.8125229 
  400000    13.107266    568.18182    2.7811243 
  402000     13.12403    568.18182    2.7804809 
  404000     13.08023    568.18182    2.7717979 
  406000    12.969037    568.18182    2.8094135 
  408000    13.061769    568.18182    2.7901302 
  410000    13.165674    568.18182     2.781553 
  412000    13.004756    568.18182    2.7834541 
  414000    13.084748    568.18182    2.7809638 
  416000    13.016572    568.18182    2.8196425 
  418000    12.482207    568.18182    2.8832895 
  420000    12.563681    568.18182    2.8633663 
  422000    12.664228    568.18182    2.8155626 
  424000    12.626192    568.18182    2.8632207 
  426000     12.51268    568.18182    2.8709557 
  428000    12.233586    568.18182    2.9087628 
  430000    13.335023    568.18182    2.7342893 
  432000    11.982335    568.18182    2.9361703 
  434000    12.427886    568.18182     2.886848 
  436000    12.427077    568.18182    2.8811646 
  438000    12.942315    568.18182    2.7966834 
  440000     12.67733    568.18182    2.8388114 
  442000    12.854185    568.18182    2.8086421 
  444000    12.454318    568.18182    2.8725695 
  446000    12.682938    568.18182    2.8199833 
  448000    13.031775    568.18182     2.791144 
  450000    13.269675    568.18182    2.7370537 
  452000    12.696271    568.18182    2.8124844 
  454000     12.78121    568.18182    2.8070599 
  456000     12.81884    568.18182     2.794034 
  458000    13.150061    568.18182    2.7448728 
  460000    12.277775    568.18182    2.8985895 
  462000    12.833992    568.18182    2.7931362 
  464000    12.520335    568.18182     2.850618 
  466000    12.372933    568.18182    2.8763033 
  468000    13.035264    568.18182     2.748334 
  470000    12.055419    568.18182    2.9182602 
  472000    12.523095    568.18182    2.8368375 
  474000    12.869612    568.18182    2.8058352 
  476000    12.620403    568.18182    2.8257677 
  478000    12.619631    568.18182    2.8496337 
  480000    12.196385    568.18182    2.9051867 
  482000    12.435292    568.18182    2.8790842 
  484000    12.787736    568.18182    2.7839762 
  486000     12.90881    568.18182    2.7638645 
  488000    12.347394    568.18182     2.882009 
  490000    12.525123    568.18182    2.8338087 
  492000     12.80403    568.18182    2.7824033 
  494000    12.645816    568.18182    2.8095229 
  496000    12.941306    568.18182     2.776862 
  498000    13.476959    568.18182    2.6753397 
  500000    12.765813    568.18182    2.7976569 
Loop time of 181.336 on 1 procs for 500000 steps with 500 atoms

Performance: 1191161.989 tau/day, 2757.319 timesteps/s
96.8% CPU use with 1 MPI tasks x no OpenMP threads

MPI task timing breakdown:
Section |  min time  |  avg time  |  max time  |%varavg| %total
---------------------------------------------------------------
Pair    | 147.66     | 147.66     | 147.66     |   0.0 | 81.43
Neigh   | 22.872     | 22.872     | 22.872     |   nan | 12.61
Comm    | 5.5708     | 5.5708     | 5.5708     |   0.0 |  3.07
Output  | 0.034277   | 0.034277   | 0.034277   |   0.0 |  0.02
Modify  | 4.2018     | 4.2018     | 4.2018     |   0.0 |  2.32
Other   |            | 0.9983     |            |       |  0.55

Nlocal:    500 ave 500 max 500 min
Histogram: 1 0 0 0 0 0 0 0 0 0
Nghost:    1855 ave 1855 max 1855 min
Histogram: 1 0 0 0 0 0 0 0 0 0
Neighs:    19839 ave 19839 max 19839 min
Histogram: 1 0 0 0 0 0 0 0 0 0

Total # of neighbors = 19839
Ave neighs/atom = 39.678
Neighbor list builds = 25000
Dangerous builds not checked
Total wall time: 0:03:01
