LAMMPS (19 Oct 2016)
# equation of state for LJ

variable temp equal 3
variable rho  equal 0.53

units lj
atom_style atomic

lattice    fcc ${rho}
lattice    fcc 0.53
Lattice spacing in x,y,z = 1.96153 1.96153 1.96153
region box block 0 5 0 5 0 5
create_box 1 box
Created orthogonal box = (0 0 0) to (9.80764 9.80764 9.80764)
  1 by 1 by 1 MPI processor grid
create_atoms 1 box
Created 500 atoms
mass       1 1.0

pair_style lj/cut 2.5
pair_coeff 1 1 1.0 1.0 2.5

velocity   all create ${temp} 87287
velocity   all create 3 87287

neighbor   0.3 bin
neigh_modify every 20 delay 0 check no

fix        1 all nvt temp ${temp} ${temp} 100
fix        1 all nvt temp 3 ${temp} 100
fix        1 all nvt temp 3 3 100
dump       1 all custom 70000 dump_t${temp}_r${rho}.lammpstrj id type x y z
dump       1 all custom 70000 dump_t3_r${rho}.lammpstrj id type x y z
dump       1 all custom 70000 dump_t3_r0.53.lammpstrj id type x y z
thermo     2000
thermo_style  custom step press vol temp
thermo_modify flush yes

run 500000
Neighbor list info ...
  1 neighbor list requests
  update every 20 steps, delay 0 steps, check no
  max neighbors/atom: 2000, page size: 100000
  master list distance cutoff = 2.8
  ghost atom cutoff = 2.8
  binsize = 1.4 -> bins = 8 8 8
Memory usage per processor = 3.29189 Mbytes
Step Press Volume Temp 
       0   -1.4599498    943.39623            3 
    2000    2.6049422    943.39623    2.6411666 
    4000    2.4600146    943.39623    2.6166159 
    6000    2.5289678    943.39623    2.5773859 
    8000    2.4937805    943.39623    2.5687396 
   10000    2.2022332    943.39623    2.5846508 
   12000    2.3438449    943.39623    2.5588743 
   14000    2.3181188    943.39623    2.5870204 
   16000    2.1453439    943.39623    2.5866128 
   18000    2.6813432    943.39623     2.466063 
   20000    2.4955187    943.39623    2.5198523 
   22000    2.3004332    943.39623    2.5247757 
   24000    2.3213628    943.39623    2.5259083 
   26000    2.1765027    943.39623       2.5403 
   28000    2.3425923    943.39623    2.5035895 
   30000    2.1909085    943.39623    2.5253682 
   32000    1.9629266    943.39623    2.5674922 
   34000     2.132465    943.39623    2.4909701 
   36000    2.2791663    943.39623    2.5380661 
   38000    2.4603043    943.39623    2.4579329 
   40000     2.138628    943.39623    2.5550219 
   42000    2.0510466    943.39623    2.5744211 
   44000    2.2544658    943.39623    2.5148239 
   46000     2.351374    943.39623    2.4781103 
   48000    2.1931323    943.39623    2.5046735 
   50000    2.4986917    943.39623    2.4728367 
   52000    2.3074905    943.39623    2.5153791 
   54000    2.4648129    943.39623    2.4995229 
   56000    2.3919405    943.39623    2.5626565 
   58000    2.2001835    943.39623    2.5623075 
   60000    2.4856066    943.39623    2.5065422 
   62000    2.0764859    943.39623    2.6043736 
   64000     2.467632    943.39623    2.5168022 
   66000     2.504448    943.39623    2.5092075 
   68000      2.15419    943.39623    2.5993608 
   70000    2.3140505    943.39623    2.5852678 
   72000    2.2198719    943.39623    2.5979159 
   74000    2.4705823    943.39623    2.5737584 
   76000    2.5502599    943.39623    2.5434735 
   78000    2.2427661    943.39623     2.620159 
   80000    2.3552515    943.39623    2.5792674 
   82000    2.2749197    943.39623    2.6179054 
   84000    2.6336352    943.39623    2.5674342 
   86000    2.8238806    943.39623    2.5057733 
   88000    2.4150366    943.39623    2.6247715 
   90000    2.5171078    943.39623     2.561399 
   92000    2.7558943    943.39623    2.5703925 
   94000    2.5356222    943.39623    2.6079303 
   96000    2.5464004    943.39623    2.5865549 
   98000      2.69632    943.39623    2.6120773 
  100000    2.5148365    943.39623    2.6516884 
  102000    2.7178569    943.39623    2.5837449 
  104000    2.5398836    943.39623    2.6489039 
  106000    2.3480182    943.39623    2.6823204 
  108000    2.5587178    943.39623    2.6242192 
  110000     2.718588    943.39623    2.6220433 
  112000    2.2086768    943.39623    2.7004182 
  114000     2.264695    943.39623    2.6905522 
  116000    2.6291818    943.39623    2.6367853 
  118000    2.4903723    943.39623    2.6428601 
  120000    2.3570277    943.39623    2.6751001 
  122000    2.6519678    943.39623    2.6386939 
  124000    2.5859773    943.39623     2.647912 
  126000     2.657507    943.39623    2.6376109 
  128000    2.3877463    943.39623     2.686948 
  130000    2.3638195    943.39623     2.705836 
  132000    2.5101182    943.39623    2.6765075 
  134000    2.5517723    943.39623    2.6579409 
  136000    2.2079497    943.39623    2.7563631 
  138000    2.5636636    943.39623    2.6230149 
  140000     2.675739    943.39623    2.6544167 
  142000    2.4465574    943.39623    2.7192018 
  144000    2.7991663    943.39623    2.6337184 
  146000    2.5233451    943.39623    2.6958676 
  148000    2.4509021    943.39623    2.7014246 
  150000    2.6308062    943.39623    2.6876961 
  152000    2.3358681    943.39623    2.7174126 
  154000    2.3697977    943.39623    2.7164434 
  156000    2.3963127    943.39623    2.7133394 
  158000    2.8409362    943.39623    2.6395966 
  160000    2.3367839    943.39623    2.7276018 
  162000     2.347957    943.39623    2.7388875 
  164000    2.3409408    943.39623    2.7404614 
  166000    2.6524515    943.39623    2.7114102 
  168000    2.2733906    943.39623    2.7514851 
  170000    2.4808609    943.39623    2.7135012 
  172000    2.7002633    943.39623    2.6670351 
  174000    2.5413105    943.39623    2.6713737 
  176000    2.6471166    943.39623    2.6506237 
  178000    2.4623647    943.39623    2.7414166 
  180000    2.3543452    943.39623     2.757175 
  182000    2.6384379    943.39623    2.6792012 
  184000    2.6062263    943.39623    2.6875784 
  186000    2.4804871    943.39623    2.7188852 
  188000    2.4797015    943.39623    2.7486194 
  190000    2.5919522    943.39623    2.7228435 
  192000    2.6192756    943.39623    2.7057977 
  194000    2.3059659    943.39623    2.7572689 
  196000     2.323774    943.39623    2.7419027 
  198000    2.5740645    943.39623    2.7274786 
  200000    2.4159548    943.39623    2.7651373 
  202000    2.6257285    943.39623      2.72791 
  204000    2.5117467    943.39623    2.7097967 
  206000    2.3242194    943.39623    2.7371009 
  208000    2.5502603    943.39623    2.7163571 
  210000    2.5550673    943.39623     2.720279 
  212000    2.6181579    943.39623    2.7079127 
  214000    2.2983724    943.39623    2.7519235 
  216000    2.6392324    943.39623    2.7000546 
  218000    2.4411105    943.39623    2.7052002 
  220000    2.3793906    943.39623     2.762838 
  222000    2.6760048    943.39623    2.6762792 
  224000    2.4171211    943.39623    2.7534921 
  226000    2.5339865    943.39623    2.7235867 
  228000    2.7288723    943.39623    2.6594788 
  230000    2.4925431    943.39623    2.7464788 
  232000    2.6971747    943.39623    2.6662026 
  234000    2.5621489    943.39623      2.73917 
  236000    2.3549199    943.39623    2.7752172 
  238000    2.5300987    943.39623    2.7139515 
  240000    2.8033579    943.39623    2.6742878 
  242000    2.4039311    943.39623    2.7626833 
  244000    2.7454947    943.39623    2.6855137 
  246000    2.3304122    943.39623    2.7913708 
  248000     2.455233    943.39623    2.7361174 
  250000    2.6979335    943.39623    2.6740697 
  252000    2.7257591    943.39623    2.6718436 
  254000    2.4531375    943.39623     2.732137 
  256000    2.2469163    943.39623    2.7847306 
  258000    2.6238628    943.39623     2.696975 
  260000    2.3764657    943.39623    2.7277687 
  262000    2.6299845    943.39623    2.6917987 
  264000    2.7646812    943.39623    2.6873243 
  266000    2.8711965    943.39623    2.6378086 
  268000    2.5453324    943.39623    2.7056238 
  270000     2.342516    943.39623    2.7889624 
  272000    2.8330207    943.39623    2.7032993 
  274000    2.5809469    943.39623    2.7124011 
  276000    2.6182725    943.39623    2.6794898 
  278000    2.5656355    943.39623     2.732209 
  280000    2.6015795    943.39623    2.7390014 
  282000    2.6118077    943.39623    2.7107472 
  284000    2.6017171    943.39623    2.7271204 
  286000    2.5753908    943.39623    2.6964475 
  288000    2.3630012    943.39623    2.7458405 
  290000    2.3411973    943.39623    2.7606033 
  292000    2.6262558    943.39623    2.7009294 
  294000    2.4506118    943.39623    2.7604788 
  296000    2.2293113    943.39623    2.8036411 
  298000    2.8034597    943.39623    2.6644209 
  300000    2.6442676    943.39623    2.6640843 
  302000    2.6416636    943.39623    2.6787345 
  304000    2.3484831    943.39623    2.7670069 
  306000    2.7366874    943.39623    2.7063812 
  308000    2.8330349    943.39623    2.6828378 
  310000    2.4511311    943.39623    2.7367928 
  312000    2.6087544    943.39623    2.7397053 
  314000    2.6783871    943.39623    2.6921208 
  316000    2.4747868    943.39623    2.7181878 
  318000    2.2704761    943.39623    2.7833067 
  320000    2.5390689    943.39623    2.7421341 
  322000    2.6295672    943.39623    2.7278831 
  324000    2.4530901    943.39623      2.74461 
  326000    2.5797168    943.39623    2.7137838 
  328000    2.7782013    943.39623    2.6668257 
  330000    2.2418018    943.39623    2.7836741 
  332000    2.5221204    943.39623    2.7403477 
  334000    2.7373489    943.39623    2.6876972 
  336000    2.3425726    943.39623     2.765901 
  338000    2.4890069    943.39623     2.767499 
  340000    2.6706456    943.39623    2.6927043 
  342000    2.2688254    943.39623     2.809851 
  344000    2.5799268    943.39623    2.6923207 
  346000    2.7106048    943.39623    2.6865949 
  348000    2.5670412    943.39623    2.7270814 
  350000    2.6872032    943.39623    2.7297032 
  352000    1.9937839    943.39623     2.852142 
  354000    2.5035918    943.39623    2.7470177 
  356000    2.3357065    943.39623    2.7662953 
  358000    2.5418727    943.39623    2.7762019 
  360000    2.4990194    943.39623    2.7249059 
  362000    2.5985223    943.39623    2.7556057 
  364000    2.6361227    943.39623     2.700792 
  366000    2.9545552    943.39623    2.6494584 
  368000    2.7569517    943.39623    2.7169629 
  370000    2.5915941    943.39623    2.7012454 
  372000     2.657922    943.39623    2.6868619 
  374000    2.2335242    943.39623    2.7449185 
  376000    2.7386461    943.39623    2.7036147 
  378000    2.3817071    943.39623    2.7934784 
  380000    2.4063789    943.39623    2.7725086 
  382000    2.7421204    943.39623    2.6913395 
  384000    2.4930788    943.39623    2.7268022 
  386000     2.441263    943.39623     2.718949 
  388000    2.1853881    943.39623    2.7904082 
  390000    2.4952122    943.39623    2.7599011 
  392000    2.4124638    943.39623    2.7852534 
  394000    2.5541395    943.39623    2.7515233 
  396000     2.485613    943.39623    2.7192107 
  398000    2.6542334    943.39623     2.706098 
  400000    2.3223047    943.39623    2.7853836 
  402000    2.7959703    943.39623    2.6608018 
  404000    2.5105972    943.39623    2.7309923 
  406000     2.602815    943.39623    2.6883385 
  408000     2.501401    943.39623    2.7352088 
  410000    2.5100893    943.39623    2.7338696 
  412000    2.3766962    943.39623     2.728254 
  414000     2.414347    943.39623    2.7842602 
  416000     2.679885    943.39623    2.7146938 
  418000     2.269939    943.39623    2.7772239 
  420000     2.531399    943.39623     2.753271 
  422000    2.6080742    943.39623    2.7099726 
  424000    2.8955734    943.39623    2.6417487 
  426000    2.5671351    943.39623    2.7431622 
  428000    2.6582154    943.39623    2.7140942 
  430000    2.8365543    943.39623    2.6698787 
  432000    2.7122782    943.39623    2.6942873 
  434000    2.8493527    943.39623    2.6595531 
  436000    2.4195689    943.39623    2.7526899 
  438000    2.6909779    943.39623      2.68662 
  440000    2.7761553    943.39623    2.6941563 
  442000    2.6616222    943.39623    2.7085047 
  444000     2.353971    943.39623    2.7788145 
  446000    2.5831355    943.39623    2.7112226 
  448000    2.5759811    943.39623    2.7381836 
  450000     2.531638    943.39623    2.7336317 
  452000    2.5459062    943.39623    2.7447553 
  454000    2.5025205    943.39623    2.7434289 
  456000    2.1966681    943.39623    2.7849501 
  458000    2.4381724    943.39623    2.7438553 
  460000    2.4730477    943.39623     2.763588 
  462000    2.3414513    943.39623     2.779053 
  464000     2.578621    943.39623    2.7421032 
  466000    2.6654227    943.39623      2.69638 
  468000    2.6516028    943.39623    2.7200686 
  470000     2.439246    943.39623    2.7648676 
  472000    3.1178264    943.39623    2.5852727 
  474000    2.6251677    943.39623    2.6970083 
  476000     2.755974    943.39623    2.7075547 
  478000    2.4476904    943.39623    2.7604654 
  480000    2.7103273    943.39623    2.6756642 
  482000    2.5772293    943.39623     2.742889 
  484000    2.9203278    943.39623    2.6443172 
  486000    2.5795518    943.39623    2.6928031 
  488000    2.5014254    943.39623    2.7521162 
  490000    2.8622803    943.39623    2.6530994 
  492000    2.4769878    943.39623    2.7435119 
  494000    2.8061347    943.39623    2.6924551 
  496000    2.3274117    943.39623    2.7544137 
  498000    2.7242962    943.39623    2.6876376 
  500000    2.6968201    943.39623    2.6925078 
Loop time of 113.166 on 1 procs for 500000 steps with 500 atoms

Performance: 1908697.929 tau/day, 4418.282 timesteps/s
96.3% CPU use with 1 MPI tasks x no OpenMP threads

MPI task timing breakdown:
Section |  min time  |  avg time  |  max time  |%varavg| %total
---------------------------------------------------------------
Pair    | 89.153     | 89.153     | 89.153     |   0.0 | 78.78
Neigh   | 14.559     | 14.559     | 14.559     |   0.0 | 12.86
Comm    | 4.5276     | 4.5276     | 4.5276     |   0.0 |  4.00
Output  | 0.021903   | 0.021903   | 0.021903   |   0.0 |  0.02
Modify  | 4.0647     | 4.0647     | 4.0647     |   0.0 |  3.59
Other   |            | 0.8399     |            |       |  0.74

Nlocal:    500 ave 500 max 500 min
Histogram: 1 0 0 0 0 0 0 0 0 0
Nghost:    1465 ave 1465 max 1465 min
Histogram: 1 0 0 0 0 0 0 0 0 0
Neighs:    11943 ave 11943 max 11943 min
Histogram: 1 0 0 0 0 0 0 0 0 0

Total # of neighbors = 11943
Ave neighs/atom = 23.886
Neighbor list builds = 25000
Dangerous builds not checked
Total wall time: 0:01:53
