LAMMPS (19 Oct 2016)
# equation of state for LJ

variable temp equal 3
variable rho  equal 0.905

units lj
atom_style atomic

lattice    fcc ${rho}
lattice    fcc 0.905
Lattice spacing in x,y,z = 1.64111 1.64111 1.64111
region box block 0 5 0 5 0 5
create_box 1 box
Created orthogonal box = (0 0 0) to (8.20554 8.20554 8.20554)
  1 by 1 by 1 MPI processor grid
create_atoms 1 box
Created 500 atoms
mass       1 1.0

pair_style lj/cut 2.5
pair_coeff 1 1 1.0 1.0 2.5

velocity   all create ${temp} 87287
velocity   all create 3 87287

neighbor   0.3 bin
neigh_modify every 20 delay 0 check no

fix        1 all nvt temp ${temp} ${temp} 100
fix        1 all nvt temp 3 ${temp} 100
fix        1 all nvt temp 3 3 100
dump       1 all custom 70000 dump_t${temp}_r${rho}.lammpstrj id type x y z
dump       1 all custom 70000 dump_t3_r${rho}.lammpstrj id type x y z
dump       1 all custom 70000 dump_t3_r0.905.lammpstrj id type x y z
thermo     2000
thermo_style  custom step press vol temp
thermo_modify flush yes

run 500000
Neighbor list info ...
  1 neighbor list requests
  update every 20 steps, delay 0 steps, check no
  max neighbors/atom: 2000, page size: 100000
  master list distance cutoff = 2.8
  ghost atom cutoff = 2.8
  binsize = 1.4 -> bins = 6 6 6
Memory usage per processor = 3.32155 Mbytes
Step Press Volume Temp 
       0    -3.059982    552.48619            3 
    2000    7.6997969    552.48619    1.4613952 
    4000    7.5216662    552.48619    1.5126795 
    6000    7.5656211    552.48619     1.520318 
    8000    7.9685673    552.48619    1.5232213 
   10000    7.7318227    552.48619    1.5951636 
   12000    7.6478105    552.48619    1.6354536 
   14000    8.3077058    552.48619    1.5464349 
   16000    7.9817137    552.48619    1.6377874 
   18000    8.1791257    552.48619    1.6452842 
   20000    8.1688839    552.48619    1.6940805 
   22000    8.1523368    552.48619    1.7592279 
   24000    8.5024844    552.48619    1.7117033 
   26000     8.772712    552.48619    1.7467558 
   28000    9.2897955    552.48619    1.7015231 
   30000    9.1601209    552.48619     1.783455 
   32000    9.2177588    552.48619    1.8144048 
   34000    9.4471809    552.48619    1.8353054 
   36000    9.4200497    552.48619    1.8800049 
   38000    10.076693    552.48619    1.8435749 
   40000    10.024972    552.48619    1.8945485 
   42000    10.061487    552.48619    1.9552767 
   44000     9.871026    552.48619    2.0235694 
   46000    10.343245    552.48619    1.9987881 
   48000    10.083545    552.48619    2.0743022 
   50000    10.576026    552.48619    2.0723091 
   52000    10.971609    552.48619    2.0805852 
   54000    10.655102    552.48619    2.1534265 
   56000     10.79603    552.48619    2.1866914 
   58000    11.377042    552.48619     2.157246 
   60000    11.706681    552.48619    2.1769716 
   62000    11.310468    552.48619    2.2733546 
   64000    11.914396    552.48619    2.2213248 
   66000    11.604182    552.48619    2.3344986 
   68000     11.40727    552.48619    2.3762014 
   70000    12.054676    552.48619    2.3696939 
   72000    12.178189    552.48619    2.3912879 
   74000    12.283832    552.48619    2.3998703 
   76000    12.672042    552.48619    2.4115323 
   78000    12.186563    552.48619    2.5200738 
   80000    12.402752    552.48619    2.5267383 
   82000    12.904107    552.48619    2.4918771 
   84000    13.461969    552.48619    2.4457079 
   86000     12.97502    552.48619     2.567175 
   88000    12.925895    552.48619    2.6440992 
   90000    13.943601    552.48619    2.5015435 
   92000    13.670081    552.48619    2.5752894 
   94000    14.100203    552.48619    2.5269927 
   96000    13.667317    552.48619    2.6570481 
   98000    13.627478    552.48619    2.6709171 
  100000    13.913072    552.48619    2.6744489 
  102000    14.072265    552.48619    2.6714826 
  104000    13.772597    552.48619    2.7418453 
  106000    13.433306    552.48619    2.8341263 
  108000    13.816807    552.48619    2.7828007 
  110000    14.440152    552.48619    2.6952436 
  112000    13.759877    552.48619    2.8546171 
  114000    14.120482    552.48619    2.8113931 
  116000    14.313277    552.48619    2.7885648 
  118000    14.649145    552.48619    2.7591267 
  120000    14.957953    552.48619    2.7292432 
  122000    14.806385    552.48619    2.7762742 
  124000    14.594628    552.48619    2.8333932 
  126000    14.358892    552.48619    2.8570058 
  128000    14.450764    552.48619    2.8688414 
  130000    15.126705    552.48619    2.7710709 
  132000    14.659178    552.48619    2.8544557 
  134000    14.695256    552.48619    2.8402607 
  136000    14.614492    552.48619    2.8741066 
  138000    14.285326    552.48619    2.9373189 
  140000    15.062239    552.48619    2.7941942 
  142000    14.099838    552.48619    2.9775659 
  144000    14.862738    552.48619    2.8650186 
  146000    14.815421    552.48619    2.8793708 
  148000    14.554669    552.48619    2.9249909 
  150000    15.447849    552.48619    2.7648746 
  152000    15.222921    552.48619    2.8287981 
  154000    14.817368    552.48619    2.8976905 
  156000    14.653691    552.48619    2.9050531 
  158000    14.633372    552.48619    2.8982364 
  160000    14.955309    552.48619    2.8679507 
  162000    14.378329    552.48619    2.9438787 
  164000    14.081692    552.48619    3.0003962 
  166000    14.452068    552.48619    2.9326223 
  168000     15.22696    552.48619    2.8146104 
  170000    14.775563    552.48619    2.9005929 
  172000    14.876188    552.48619    2.8861527 
  174000    15.107197    552.48619    2.8184683 
  176000    14.929395    552.48619    2.8581944 
  178000    14.931825    552.48619    2.8649138 
  180000    14.277565    552.48619    2.9593752 
  182000      14.3194    552.48619    2.9576706 
  184000    14.121926    552.48619    2.9924567 
  186000    14.882367    552.48619     2.855569 
  188000    14.772657    552.48619    2.8846859 
  190000    14.490005    552.48619    2.9382255 
  192000    15.405587    552.48619    2.7459582 
  194000     14.51897    552.48619    2.9022805 
  196000     14.41361    552.48619    2.9382064 
  198000    14.245046    552.48619    2.9581453 
  200000    15.145784    552.48619    2.8378259 
  202000    14.426307    552.48619    2.9339099 
  204000    15.200027    552.48619    2.8020847 
  206000    14.191813    552.48619    2.9340435 
  208000    14.326723    552.48619    2.9576594 
  210000    14.380269    552.48619    2.9486778 
  212000     15.28401    552.48619    2.7864982 
  214000    14.722177    552.48619    2.8751546 
  216000     15.40288    552.48619    2.7523753 
  218000    14.433133    552.48619    2.9165182 
  220000    15.151005    552.48619    2.7844147 
  222000    14.913102    552.48619    2.8213377 
  224000    14.958277    552.48619    2.8253342 
  226000    14.575498    552.48619    2.8975056 
  228000    15.135664    552.48619    2.7944188 
  230000    14.787061    552.48619    2.8805335 
  232000     14.72307    552.48619    2.8637049 
  234000    14.824831    552.48619     2.838876 
  236000    15.249001    552.48619    2.7763123 
  238000    14.867617    552.48619    2.8460439 
  240000    15.028324    552.48619     2.827765 
  242000    14.085162    552.48619    2.9450212 
  244000    14.223051    552.48619    2.9406485 
  246000    14.366916    552.48619    2.8881696 
  248000    15.132268    552.48619    2.8218179 
  250000    14.600695    552.48619    2.8952784 
  252000    14.814688    552.48619    2.8443558 
  254000    14.458387    552.48619    2.8929907 
  256000    14.107566    552.48619     2.945894 
  258000    14.233285    552.48619    2.9410306 
  260000    13.806562    552.48619    3.0078436 
  262000    14.676854    552.48619    2.8555625 
  264000    14.696733    552.48619    2.8407038 
  266000    14.216097    552.48619    2.9531178 
  268000     14.63407    552.48619    2.8735058 
  270000     14.52968    552.48619    2.8839711 
  272000     14.87007    552.48619    2.8427625 
  274000    14.922443    552.48619    2.7993951 
  276000    15.053904    552.48619    2.7903425 
  278000       14.352    552.48619    2.9235678 
  280000    14.719907    552.48619    2.8623472 
  282000     14.87802    552.48619    2.8153556 
  284000    15.084751    552.48619       2.7914 
  286000    15.237656    552.48619    2.7350683 
  288000    14.701223    552.48619    2.8441027 
  290000     14.77077    552.48619    2.8482206 
  292000    14.933385    552.48619    2.8225354 
  294000    14.602022    552.48619    2.8597845 
  296000    14.289335    552.48619    2.9197484 
  298000    14.740386    552.48619     2.838044 
  300000    14.654443    552.48619    2.8430082 
  302000    14.599664    552.48619    2.8649744 
  304000    14.840532    552.48619    2.8096338 
  306000     13.97801    552.48619    2.9599433 
  308000    14.665856    552.48619    2.8615783 
  310000    14.676463    552.48619    2.8518601 
  312000     14.89118    552.48619    2.8080282 
  314000    14.644034    552.48619    2.8452372 
  316000    14.645261    552.48619    2.8487259 
  318000    13.676263    552.48619     3.012033 
  320000     14.91193    552.48619    2.7821668 
  322000    15.114756    552.48619    2.7662121 
  324000    14.802286    552.48619    2.8163425 
  326000    14.210737    552.48619    2.8995684 
  328000    14.979171    552.48619    2.7837875 
  330000    14.440177    552.48619    2.8678519 
  332000    14.544791    552.48619    2.8730746 
  334000    14.225834    552.48619    2.9051111 
  336000    14.265786    552.48619    2.9235182 
  338000    14.124654    552.48619    2.9104809 
  340000    14.706818    552.48619    2.8285758 
  342000    13.605695    552.48619    3.0070471 
  344000    14.413546    552.48619    2.8846025 
  346000    15.076688    552.48619    2.7769012 
  348000    13.792463    552.48619    2.9703831 
  350000    14.207727    552.48619    2.8928175 
  352000    14.401598    552.48619    2.8893524 
  354000    14.097629    552.48619    2.9129675 
  356000    14.415397    552.48619     2.862172 
  358000    14.132739    552.48619    2.8930047 
  360000    14.196173    552.48619    2.9003642 
  362000    14.100913    552.48619    2.9283276 
  364000    14.153289    552.48619    2.9085514 
  366000    14.794101    552.48619    2.8261092 
  368000    14.679991    552.48619     2.797822 
  370000    14.677828    552.48619    2.8228939 
  372000    14.089039    552.48619    2.9082773 
  374000    14.598483    552.48619    2.8233891 
  376000    14.597683    552.48619     2.817972 
  378000    14.422252    552.48619     2.839745 
  380000    14.552419    552.48619    2.8400748 
  382000    14.494219    552.48619    2.8228052 
  384000    14.771038    552.48619    2.8138387 
  386000    14.453125    552.48619    2.8315998 
  388000    14.447514    552.48619    2.8486918 
  390000     15.52219    552.48619    2.6705135 
  392000    14.611351    552.48619     2.816632 
  394000    14.431047    552.48619     2.846157 
  396000    15.041522    552.48619    2.7329501 
  398000    13.959973    552.48619    2.9262367 
  400000    14.738926    552.48619    2.7906856 
  402000    14.626342    552.48619    2.8086236 
  404000    13.745798    552.48619    2.9643077 
  406000    14.129421    552.48619    2.8880715 
  408000     14.44777    552.48619    2.8343609 
  410000    14.385614    552.48619    2.8333222 
  412000    14.647333    552.48619    2.8105937 
  414000    14.624048    552.48619     2.798421 
  416000    14.116965    552.48619    2.8878452 
  418000    14.318424    552.48619    2.8388786 
  420000    13.822383    552.48619    2.9272584 
  422000    14.184948    552.48619    2.8741227 
  424000    14.324152    552.48619    2.8577346 
  426000    14.681703    552.48619    2.7866695 
  428000     14.42626    552.48619    2.8305189 
  430000    14.424136    552.48619    2.8512284 
  432000    14.846732    552.48619    2.7524865 
  434000    14.522921    552.48619    2.8127896 
  436000    14.373777    552.48619    2.8357648 
  438000    14.721574    552.48619    2.7913881 
  440000    14.471337    552.48619     2.813573 
  442000    14.049676    552.48619    2.8749838 
  444000    14.074214    552.48619    2.8716292 
  446000    13.847114    552.48619    2.9159914 
  448000    14.644361    552.48619    2.7757361 
  450000    13.944777    552.48619     2.883879 
  452000    14.761279    552.48619    2.7333412 
  454000    14.055528    552.48619    2.8944152 
  456000    14.610951    552.48619    2.7801606 
  458000    14.210151    552.48619    2.8377147 
  460000    13.961823    552.48619    2.8937642 
  462000    13.768976    552.48619    2.9145947 
  464000    14.245698    552.48619    2.8276365 
  466000    14.507258    552.48619    2.7729521 
  468000    14.413563    552.48619    2.8186007 
  470000     14.34683    552.48619    2.8041449 
  472000    14.663861    552.48619    2.7750556 
  474000    14.548984    552.48619    2.7642604 
  476000    14.756714    552.48619    2.7504806 
  478000    14.773379    552.48619    2.7333064 
  480000    13.999907    552.48619    2.8612534 
  482000    13.932534    552.48619     2.879356 
  484000    13.783919    552.48619    2.9005406 
  486000    14.627477    552.48619    2.7841484 
  488000    14.101492    552.48619    2.8539067 
  490000      14.3528    552.48619    2.8014137 
  492000    14.196374    552.48619    2.8152508 
  494000     14.16636    552.48619    2.8304701 
  496000    13.508078    552.48619    2.9254123 
  498000    13.895375    552.48619    2.8662833 
  500000    13.924299    552.48619    2.8698236 
Loop time of 179.092 on 1 procs for 500000 steps with 500 atoms

Performance: 1206085.580 tau/day, 2791.865 timesteps/s
96.9% CPU use with 1 MPI tasks x no OpenMP threads

MPI task timing breakdown:
Section |  min time  |  avg time  |  max time  |%varavg| %total
---------------------------------------------------------------
Pair    | 145.49     | 145.49     | 145.49     |   0.0 | 81.24
Neigh   | 22.907     | 22.907     | 22.907     |   0.0 | 12.79
Comm    | 5.6569     | 5.6569     | 5.6569     |   0.0 |  3.16
Output  | 0.014295   | 0.014295   | 0.014295   |   0.0 |  0.01
Modify  | 4.0165     | 4.0165     | 4.0165     |   0.0 |  2.24
Other   |            | 1.009      |            |       |  0.56

Nlocal:    500 ave 500 max 500 min
Histogram: 1 0 0 0 0 0 0 0 0 0
Nghost:    1886 ave 1886 max 1886 min
Histogram: 1 0 0 0 0 0 0 0 0 0
Neighs:    20389 ave 20389 max 20389 min
Histogram: 1 0 0 0 0 0 0 0 0 0

Total # of neighbors = 20389
Ave neighs/atom = 40.778
Neighbor list builds = 25000
Dangerous builds not checked
Total wall time: 0:02:59
