LAMMPS (19 Oct 2016)
# equation of state for LJ

variable temp equal 3
variable rho  equal 0.903

units lj
atom_style atomic

lattice    fcc ${rho}
lattice    fcc 0.903
Lattice spacing in x,y,z = 1.64232 1.64232 1.64232
region box block 0 5 0 5 0 5
create_box 1 box
Created orthogonal box = (0 0 0) to (8.21159 8.21159 8.21159)
  1 by 1 by 1 MPI processor grid
create_atoms 1 box
Created 500 atoms
mass       1 1.0

pair_style lj/cut 2.5
pair_coeff 1 1 1.0 1.0 2.5

velocity   all create ${temp} 87287
velocity   all create 3 87287

neighbor   0.3 bin
neigh_modify every 20 delay 0 check no

fix        1 all nvt temp ${temp} ${temp} 100
fix        1 all nvt temp 3 ${temp} 100
fix        1 all nvt temp 3 3 100
dump       1 all custom 70000 dump_t${temp}_r${rho}.lammpstrj id type x y z
dump       1 all custom 70000 dump_t3_r${rho}.lammpstrj id type x y z
dump       1 all custom 70000 dump_t3_r0.903.lammpstrj id type x y z
thermo     2000
thermo_style  custom step press vol temp
thermo_modify flush yes

run 500000
Neighbor list info ...
  1 neighbor list requests
  update every 20 steps, delay 0 steps, check no
  max neighbors/atom: 2000, page size: 100000
  master list distance cutoff = 2.8
  ghost atom cutoff = 2.8
  binsize = 1.4 -> bins = 6 6 6
Memory usage per processor = 3.32155 Mbytes
Step Press Volume Temp 
       0   -3.0923938    553.70986            3 
    2000    7.3005115    553.70986    1.4908973 
    4000    7.3900449    553.70986    1.5189012 
    6000    7.2935633    553.70986    1.5738956 
    8000    7.3088609    553.70986     1.606988 
   10000    7.7012861    553.70986    1.5738491 
   12000    7.4699973    553.70986    1.6485005 
   14000    8.4823082    553.70986    1.5294268 
   16000    7.9354448    553.70986    1.6525204 
   18000    7.8769155    553.70986    1.6957269 
   20000    8.2045971    553.70986    1.6664302 
   22000    8.2678213    553.70986    1.7083642 
   24000    8.3536444    553.70986    1.7414036 
   26000    9.0299213    553.70986    1.7029005 
   28000    9.5231897    553.70986    1.6695092 
   30000    8.7784904    553.70986    1.8220115 
   32000    9.3205468    553.70986     1.788799 
   34000    9.4556873    553.70986    1.8143459 
   36000    10.008558    553.70986    1.7830912 
   38000    9.3675046    553.70986    1.9296016 
   40000    9.6548973    553.70986    1.9363327 
   42000    10.125813    553.70986    1.9253774 
   44000    9.7272936    553.70986    2.0469302 
   46000    10.085787    553.70986    2.0219253 
   48000    9.7481061    553.70986    2.1299875 
   50000    10.727592    553.70986     2.038738 
   52000     10.46921    553.70986    2.1335447 
   54000    10.867719    553.70986     2.133766 
   56000    11.092032    553.70986    2.1320314 
   58000    11.264254    553.70986    2.1624861 
   60000    11.615611    553.70986    2.1724906 
   62000    10.729055    553.70986     2.361373 
   64000    11.964495    553.70986    2.2011268 
   66000    11.822344    553.70986    2.2673276 
   68000    11.509967    553.70986    2.3715722 
   70000    12.240973    553.70986    2.2964908 
   72000    12.190686    553.70986    2.3781659 
   74000    12.529608    553.70986    2.3725213 
   76000    13.011849    553.70986    2.3197104 
   78000    12.324123    553.70986    2.4799771 
   80000    12.678325    553.70986    2.4725049 
   82000    12.247285    553.70986    2.5873548 
   84000    12.923183    553.70986    2.5210673 
   86000    13.214571    553.70986    2.5091143 
   88000     13.21493    553.70986    2.5558061 
   90000    13.709965    553.70986    2.5193583 
   92000     12.78249    553.70986    2.6966777 
   94000    12.904642    553.70986    2.7136025 
   96000    13.263878    553.70986    2.7014579 
   98000    14.123528    553.70986     2.576859 
  100000     13.87956    553.70986    2.6416999 
  102000    13.263288    553.70986    2.7902635 
  104000    13.431394    553.70986    2.7992486 
  106000    12.853121    553.70986    2.9030263 
  108000    13.520826    553.70986    2.8249985 
  110000    13.596596    553.70986    2.8390395 
  112000    13.959288    553.70986    2.7840011 
  114000    13.814883    553.70986    2.8411514 
  116000     13.91139    553.70986    2.8475784 
  118000    14.304911    553.70986    2.7965269 
  120000    14.389705    553.70986     2.803228 
  122000    14.230024    553.70986    2.8314957 
  124000    14.941694    553.70986    2.7212975 
  126000     13.63919    553.70986      2.97623 
  128000    13.924311    553.70986    2.9579829 
  130000    14.566384    553.70986    2.8285306 
  132000    14.909507    553.70986    2.8098146 
  134000    13.710209    553.70986    2.9982002 
  136000     14.42781    553.70986     2.883067 
  138000    14.610986    553.70986    2.8614452 
  140000    14.297389    553.70986    2.9179034 
  142000    15.309074    553.70986    2.7418265 
  144000     14.08016    553.70986    2.9450881 
  146000    14.185082    553.70986    2.9453282 
  148000    14.234653    553.70986    2.9346238 
  150000    14.079044    553.70986    2.9710439 
  152000    14.590843    553.70986    2.8999194 
  154000    14.944159    553.70986    2.8658429 
  156000    14.250333    553.70986    2.9625023 
  158000      14.8471    553.70986     2.853584 
  160000    14.148146    553.70986    2.9571895 
  162000    14.028377    553.70986    2.9915826 
  164000      14.2226    553.70986    2.9544794 
  166000     14.74964    553.70986       2.8654 
  168000     14.95378    553.70986    2.8322547 
  170000    14.648556    553.70986    2.8729375 
  172000    14.970528    553.70986    2.8361343 
  174000    14.427206    553.70986    2.9121641 
  176000    14.144385    553.70986    2.9817929 
  178000    14.514027    553.70986    2.9056135 
  180000    14.665757    553.70986    2.8575727 
  182000    14.715286    553.70986    2.8656067 
  184000     14.26938    553.70986    2.9479726 
  186000    14.822854    553.70986    2.8638209 
  188000    14.491463    553.70986    2.8774591 
  190000    14.203274    553.70986    2.9505475 
  192000    14.568862    553.70986    2.8954624 
  194000    14.872825    553.70986    2.8192904 
  196000    13.966097    553.70986    2.9709593 
  198000    14.620402    553.70986    2.8698884 
  200000    14.166982    553.70986    2.9454004 
  202000    15.110477    553.70986    2.7792783 
  204000    14.242647    553.70986    2.9329937 
  206000    14.831034    553.70986    2.8590754 
  208000    14.779161    553.70986    2.8392503 
  210000    14.326192    553.70986    2.9029372 
  212000    14.425424    553.70986    2.9001222 
  214000    14.266271    553.70986    2.9154402 
  216000    13.970933    553.70986    2.9597261 
  218000     14.63065    553.70986     2.857427 
  220000    14.587614    553.70986    2.8742344 
  222000    14.444119    553.70986    2.9076323 
  224000    14.084536    553.70986    2.9564918 
  226000    14.248865    553.70986    2.9070429 
  228000    14.618788    553.70986    2.8559958 
  230000    14.711198    553.70986    2.8323467 
  232000    15.393671    553.70986    2.7198236 
  234000    14.801384    553.70986    2.8575684 
  236000    14.500182    553.70986    2.8685554 
  238000    14.256264    553.70986     2.938266 
  240000    14.339059    553.70986    2.9088739 
  242000    14.923681    553.70986    2.7950597 
  244000    14.630904    553.70986    2.8685825 
  246000    14.027848    553.70986    2.9415979 
  248000    14.614703    553.70986    2.8571825 
  250000    14.183273    553.70986    2.9088339 
  252000    14.417886    553.70986    2.8695275 
  254000    13.765071    553.70986    2.9818386 
  256000    14.175755    553.70986    2.9314631 
  258000     14.27587    553.70986    2.9156326 
  260000    14.559454    553.70986    2.8557501 
  262000     14.16598    553.70986    2.9355435 
  264000    13.968402    553.70986    2.9581857 
  266000    14.455831    553.70986    2.8676918 
  268000    14.033173    553.70986    2.9393889 
  270000    14.388658    553.70986    2.8766007 
  272000    14.337573    553.70986    2.8835295 
  274000    14.742378    553.70986    2.8248419 
  276000    14.568176    553.70986    2.8549385 
  278000    13.736683    553.70986    2.9919307 
  280000     14.38849    553.70986     2.890332 
  282000    13.689542    553.70986    2.9818002 
  284000    13.603856    553.70986    2.9956395 
  286000    14.536804    553.70986    2.8691478 
  288000    14.775112    553.70986    2.7842501 
  290000    14.468613    553.70986    2.8434345 
  292000    14.159489    553.70986    2.9257157 
  294000    14.668724    553.70986    2.8002925 
  296000    13.684663    553.70986     2.985339 
  298000     14.89219    553.70986     2.798052 
  300000    14.631075    553.70986    2.8331956 
  302000    14.229665    553.70986    2.9167399 
  304000    14.888662    553.70986    2.7789892 
  306000    13.999336    553.70986    2.9279372 
  308000     14.07861    553.70986    2.9254413 
  310000    14.521222    553.70986    2.8451688 
  312000    15.065698    553.70986    2.7553267 
  314000    14.580263    553.70986      2.83262 
  316000    15.009739    553.70986    2.7572288 
  318000    14.583188    553.70986    2.8152635 
  320000    14.679616    553.70986    2.8150347 
  322000    14.165444    553.70986    2.8771526 
  324000    13.927567    553.70986    2.9300173 
  326000    14.150212    553.70986    2.8905637 
  328000    14.114703    553.70986    2.9179641 
  330000     14.76111    553.70986    2.8238308 
  332000    14.950304    553.70986    2.7660817 
  334000    14.875851    553.70986    2.7947115 
  336000    13.767805    553.70986    2.9573004 
  338000    14.293355    553.70986    2.8618502 
  340000    14.159679    553.70986     2.876879 
  342000    14.784851    553.70986    2.7822679 
  344000    14.021029    553.70986    2.8934571 
  346000    14.052514    553.70986     2.901086 
  348000    14.009401    553.70986    2.9134436 
  350000    14.822869    553.70986    2.7633252 
  352000    13.520402    553.70986     3.007523 
  354000    14.391368    553.70986    2.8353702 
  356000    15.213886    553.70986    2.7062465 
  358000    14.509711    553.70986    2.8286802 
  360000    14.727228    553.70986    2.8219658 
  362000     14.03399    553.70986    2.8994491 
  364000     14.62832    553.70986     2.798208 
  366000    13.753765    553.70986    2.9564558 
  368000    14.486985    553.70986    2.8441166 
  370000    14.648776    553.70986    2.7987913 
  372000    14.028489    553.70986    2.8839959 
  374000    14.478041    553.70986    2.8113312 
  376000    14.151776    553.70986     2.865182 
  378000    13.926814    553.70986    2.8958442 
  380000    14.694446    553.70986    2.7946483 
  382000    14.166188    553.70986    2.8649756 
  384000    14.267297    553.70986    2.8651762 
  386000    13.548827    553.70986    2.9704129 
  388000    14.503432    553.70986    2.8105356 
  390000    13.556961    553.70986    2.9479837 
  392000    14.428839    553.70986     2.803995 
  394000    14.112958    553.70986    2.8675712 
  396000    14.473073    553.70986    2.7908066 
  398000    14.109495    553.70986     2.870477 
  400000    14.280897    553.70986    2.8562754 
  402000    14.049593    553.70986     2.901444 
  404000    14.920738    553.70986    2.7182999 
  406000    14.106014    553.70986    2.8540506 
  408000    14.782136    553.70986    2.7623694 
  410000    13.772911    553.70986     2.914619 
  412000    13.874346    553.70986    2.8966688 
  414000    13.505362    553.70986    2.9506381 
  416000    14.152538    553.70986    2.8547281 
  418000    14.114866    553.70986    2.8928059 
  420000    14.818891    553.70986    2.7422439 
  422000    14.255633    553.70986    2.8150826 
  424000    14.371527    553.70986    2.7863765 
  426000    13.751604    553.70986     2.901269 
  428000     14.32373    553.70986    2.8132773 
  430000    14.341709    553.70986    2.8151708 
  432000     14.04944    553.70986    2.8431999 
  434000    14.338199    553.70986    2.8185832 
  436000    13.741316    553.70986    2.9238863 
  438000    14.255273    553.70986    2.8564035 
  440000    14.211098    553.70986     2.839933 
  442000    14.535997    553.70986    2.7881722 
  444000    14.059191    553.70986    2.8649795 
  446000     13.99963    553.70986    2.8647683 
  448000    14.558668    553.70986    2.7796417 
  450000    14.045307    553.70986    2.8523944 
  452000    14.127007    553.70986    2.8386165 
  454000    14.115529    553.70986    2.8303421 
  456000    14.722305    553.70986    2.7361204 
  458000    13.812474    553.70986    2.8967788 
  460000     14.63739    553.70986    2.7746064 
  462000    14.025721    553.70986     2.863539 
  464000     13.98527    553.70986    2.8688508 
  466000      14.5621    553.70986    2.7587738 
  468000    13.618843    553.70986    2.9108033 
  470000    14.852837    553.70986    2.7287136 
  472000    13.540796    553.70986    2.9272085 
  474000    14.269968    553.70986    2.8233346 
  476000    13.892963    553.70986    2.8860067 
  478000    14.835342    553.70986    2.7155665 
  480000    13.991181    553.70986     2.845957 
  482000    14.491083    553.70986    2.7595961 
  484000    14.099634    553.70986    2.8389314 
  486000    14.768305    553.70986     2.715352 
  488000    13.790269    553.70986     2.890321 
  490000    13.429304    553.70986    2.9485774 
  492000    14.188585    553.70986    2.8082624 
  494000    13.682819    553.70986    2.9072621 
  496000    14.078923    553.70986    2.8272794 
  498000    14.239725    553.70986    2.8191866 
  500000    14.776564    553.70986    2.7111512 
Loop time of 186.2 on 1 procs for 500000 steps with 500 atoms

Performance: 1160044.727 tau/day, 2685.289 timesteps/s
96.0% CPU use with 1 MPI tasks x no OpenMP threads

MPI task timing breakdown:
Section |  min time  |  avg time  |  max time  |%varavg| %total
---------------------------------------------------------------
Pair    | 152.21     | 152.21     | 152.21     |   0.0 | 81.75
Neigh   | 23.103     | 23.103     | 23.103     |   nan | 12.41
Comm    | 5.6689     | 5.6689     | 5.6689     |   0.0 |  3.04
Output  | 0.016419   | 0.016419   | 0.016419   |   0.0 |  0.01
Modify  | 4.1838     | 4.1838     | 4.1838     |   0.0 |  2.25
Other   |            | 1.015      |            |       |  0.55

Nlocal:    500 ave 500 max 500 min
Histogram: 1 0 0 0 0 0 0 0 0 0
Nghost:    1848 ave 1848 max 1848 min
Histogram: 1 0 0 0 0 0 0 0 0 0
Neighs:    20413 ave 20413 max 20413 min
Histogram: 1 0 0 0 0 0 0 0 0 0

Total # of neighbors = 20413
Ave neighs/atom = 40.826
Neighbor list builds = 25000
Dangerous builds not checked
Total wall time: 0:03:06
