LAMMPS (19 Oct 2016)
# equation of state for LJ

variable temp equal 3
variable rho  equal 0.89

units lj
atom_style atomic

lattice    fcc ${rho}
lattice    fcc 0.89
Lattice spacing in x,y,z = 1.65028 1.65028 1.65028
region box block 0 5 0 5 0 5
create_box 1 box
Created orthogonal box = (0 0 0) to (8.25138 8.25138 8.25138)
  1 by 1 by 1 MPI processor grid
create_atoms 1 box
Created 500 atoms
mass       1 1.0

pair_style lj/cut 2.5
pair_coeff 1 1 1.0 1.0 2.5

velocity   all create ${temp} 87287
velocity   all create 3 87287

neighbor   0.3 bin
neigh_modify every 20 delay 0 check no

fix        1 all nvt temp ${temp} ${temp} 100
fix        1 all nvt temp 3 ${temp} 100
fix        1 all nvt temp 3 3 100
dump       1 all custom 70000 dump_t${temp}_r${rho}.lammpstrj id type x y z
dump       1 all custom 70000 dump_t3_r${rho}.lammpstrj id type x y z
dump       1 all custom 70000 dump_t3_r0.89.lammpstrj id type x y z
thermo     2000
thermo_style  custom step press vol temp
thermo_modify flush yes

run 500000
Neighbor list info ...
  1 neighbor list requests
  update every 20 steps, delay 0 steps, check no
  max neighbors/atom: 2000, page size: 100000
  master list distance cutoff = 2.8
  ghost atom cutoff = 2.8
  binsize = 1.4 -> bins = 6 6 6
Memory usage per processor = 3.32155 Mbytes
Step Press Volume Temp 
       0   -3.2832079    561.79775            3 
    2000    7.1525412    561.79775    1.5224911 
    4000    7.0783359    561.79775    1.5438586 
    6000    6.8425826    561.79775    1.6143409 
    8000     6.797703    561.79775    1.6506816 
   10000    7.3133226    561.79775    1.5918999 
   12000    7.3631045    561.79775    1.6323009 
   14000    7.9561821    561.79775    1.5783272 
   16000    7.5826973    561.79775    1.6552936 
   18000    8.1914847    561.79775     1.586358 
   20000    7.5482411    561.79775    1.7492009 
   22000    7.9405042    561.79775    1.7259388 
   24000    8.0105507    561.79775    1.7506278 
   26000    8.2854092    561.79775    1.7549291 
   28000     8.370666    561.79775    1.7920556 
   30000    8.6630724    561.79775    1.7875362 
   32000    8.6908133    561.79775     1.841521 
   34000    8.5959769    561.79775    1.8996493 
   36000    8.7356311    561.79775     1.930686 
   38000    9.8414533    561.79775    1.8183914 
   40000    9.3841094    561.79775    1.9602479 
   42000    8.9600295    561.79775    2.0450607 
   44000     9.787032    561.79775     1.983558 
   46000    9.6373664    561.79775    2.0571957 
   48000    10.136088    561.79775     2.008729 
   50000    9.8038699    561.79775    2.1213288 
   52000    10.106441    561.79775    2.1200262 
   54000    10.061886    561.79775    2.1848273 
   56000      10.6529    561.79775    2.1301595 
   58000    10.557597    561.79775    2.2070752 
   60000    10.887132    561.79775    2.2206326 
   62000    10.735741    561.79775    2.2625787 
   64000    10.789177    561.79775    2.3223201 
   66000    11.065147    561.79775    2.3384304 
   68000     11.12668    561.79775    2.3653943 
   70000    11.056879    561.79775    2.4158511 
   72000    11.767193    561.79775     2.355037 
   74000    11.126844    561.79775    2.5114966 
   76000    11.668438    561.79775    2.4575971 
   78000    12.138796    561.79775    2.4228985 
   80000    12.222029    561.79775    2.4415653 
   82000    11.454797    561.79775    2.6219516 
   84000    11.878562    561.79775    2.5920758 
   86000    12.407043    561.79775    2.5513168 
   88000    11.825872    561.79775    2.6698408 
   90000     12.29786    561.79775    2.6274488 
   92000     12.29014    561.79775       2.6656 
   94000    12.926865    561.79775    2.6033299 
   96000    13.035793    561.79775    2.6223779 
   98000    13.102482    561.79775    2.6350655 
  100000    12.668327    561.79775    2.7335526 
  102000    13.033995    561.79775    2.6912184 
  104000    12.720379    561.79775    2.7787173 
  106000    12.823518    561.79775    2.7977752 
  108000    12.229533    561.79775    2.9110467 
  110000     13.14313    561.79775    2.7773918 
  112000    13.725037    561.79775    2.6940372 
  114000    13.326775    561.79775     2.813232 
  116000    12.666318    561.79775    2.8880173 
  118000       13.525    561.79775    2.7723539 
  120000    13.513081    561.79775    2.8200548 
  122000    13.168013    561.79775     2.862852 
  124000    13.051055    561.79775    2.9209931 
  126000    13.533866    561.79775    2.8331318 
  128000    13.808802    561.79775    2.7835558 
  130000    13.755122    561.79775     2.853439 
  132000    14.197372    561.79775    2.7572784 
  134000    13.671202    561.79775    2.8550931 
  136000    13.575777    561.79775    2.8926536 
  138000    13.698221    561.79775    2.8569623 
  140000    13.155935    561.79775    2.9457622 
  142000    14.336165    561.79775    2.7519167 
  144000     13.32239    561.79775    2.9297236 
  146000    13.452141    561.79775    2.9274806 
  148000    14.103446    561.79775    2.8169677 
  150000     14.11429    561.79775    2.8162233 
  152000    13.222921    561.79775    2.9777919 
  154000    14.348158    561.79775     2.792981 
  156000    14.196229    561.79775    2.7945243 
  158000    13.713906    561.79775    2.8910513 
  160000    13.443341    561.79775    2.9293028 
  162000     14.02367    561.79775    2.8432865 
  164000     13.52242    561.79775    2.9244723 
  166000    12.863114    561.79775    3.0283839 
  168000    13.323588    561.79775    2.9581925 
  170000    13.908472    561.79775    2.8576673 
  172000    13.772147    561.79775    2.8900112 
  174000    13.149948    561.79775    2.9570044 
  176000    13.326105    561.79775    2.9549738 
  178000     14.42123    561.79775     2.775478 
  180000    13.386866    561.79775    2.9576752 
  182000    13.331283    561.79775    2.9386639 
  184000    13.547494    561.79775     2.894247 
  186000    13.812111    561.79775    2.8595216 
  188000    14.073125    561.79775    2.8166587 
  190000     13.53481    561.79775    2.9044448 
  192000    13.328723    561.79775    2.9342166 
  194000    14.004936    561.79775    2.8149237 
  196000    14.010972    561.79775    2.8375834 
  198000    13.870083    561.79775    2.8297618 
  200000    13.431912    561.79775    2.9100119 
  202000    13.861883    561.79775    2.8458426 
  204000    13.540013    561.79775    2.8915573 
  206000    13.746802    561.79775    2.8597696 
  208000    13.643771    561.79775    2.8703957 
  210000    13.257118    561.79775    2.9436016 
  212000    13.457342    561.79775    2.8813376 
  214000    13.811323    561.79775    2.8267192 
  216000    13.580796    561.79775    2.8671305 
  218000    13.798159    561.79775    2.8409154 
  220000    13.962918    561.79775    2.8132778 
  222000    14.051949    561.79775    2.7980984 
  224000    13.375605    561.79775    2.9125526 
  226000    13.843959    561.79775    2.8417921 
  228000    13.880783    561.79775    2.8258235 
  230000     13.65107    561.79775     2.865568 
  232000    13.036636    561.79775    2.9587976 
  234000    13.784301    561.79775    2.8393351 
  236000    14.131841    561.79775    2.7795356 
  238000    13.638734    561.79775    2.8607464 
  240000    13.663757    561.79775    2.8674253 
  242000    13.991013    561.79775    2.8074997 
  244000    13.558676    561.79775    2.8613621 
  246000    13.871071    561.79775    2.8243211 
  248000    13.455389    561.79775    2.8753831 
  250000    13.755845    561.79775    2.8516044 
  252000     12.99543    561.79775    2.9281829 
  254000    13.498622    561.79775    2.8739063 
  256000    13.765377    561.79775    2.8335909 
  258000    13.153218    561.79775    2.9267739 
  260000    13.599788    561.79775    2.8647796 
  262000    13.187835    561.79775    2.9312615 
  264000    13.764999    561.79775    2.8349882 
  266000    13.933212    561.79775    2.8064515 
  268000    13.854311    561.79775    2.8278369 
  270000    13.746303    561.79775    2.8344808 
  272000    13.448956    561.79775    2.8844337 
  274000    13.476948    561.79775     2.885884 
  276000    13.872302    561.79775    2.8311931 
  278000    13.525282    561.79775    2.8801646 
  280000    13.391188    561.79775    2.8950924 
  282000    12.879419    561.79775    2.9680458 
  284000    14.766937    561.79775    2.6621785 
  286000    13.547096    561.79775    2.8693227 
  288000    13.522062    561.79775    2.8584965 
  290000    13.652467    561.79775    2.8392509 
  292000    12.748597    561.79775    2.9903888 
  294000    12.989411    561.79775    2.9465151 
  296000    13.359427    561.79775    2.8796586 
  298000    13.289145    561.79775    2.9025804 
  300000     13.81596    561.79775    2.8037679 
  302000    13.648907    561.79775    2.8413881 
  304000    13.533358    561.79775    2.8540537 
  306000    14.050346    561.79775     2.792885 
  308000    13.331928    561.79775    2.8991674 
  310000    13.702456    561.79775    2.8418149 
  312000    13.642787    561.79775    2.8382808 
  314000    13.578908    561.79775    2.8306347 
  316000    12.904188    561.79775    2.9638048 
  318000    13.063666    561.79775    2.9416795 
  320000    13.825882    561.79775    2.8103551 
  322000    13.803448    561.79775    2.8119774 
  324000    13.000431    561.79775      2.92084 
  326000    13.542168    561.79775    2.8808845 
  328000    13.561567    561.79775    2.8494926 
  330000    13.779727    561.79775    2.8152436 
  332000    13.138197    561.79775    2.9068178 
  334000    13.458758    561.79775    2.8726349 
  336000    13.865222    561.79775      2.78533 
  338000    13.743674    561.79775    2.8064305 
  340000    13.431313    561.79775     2.852823 
  342000    13.221489    561.79775    2.8891002 
  344000    13.368588    561.79775    2.8776863 
  346000    13.480983    561.79775    2.8497234 
  348000    13.351633    561.79775    2.8695322 
  350000    13.365003    561.79775    2.8698952 
  352000    13.588018    561.79775    2.8495806 
  354000    12.944575    561.79775    2.9447641 
  356000    13.295367    561.79775    2.8708552 
  358000     13.84947    561.79775    2.7842706 
  360000    13.941938    561.79775    2.7618401 
  362000    13.688563    561.79775    2.7837613 
  364000    13.439661    561.79775    2.8476731 
  366000    13.572311    561.79775    2.8263853 
  368000    13.242963    561.79775    2.8755292 
  370000     12.76849    561.79775    2.9543311 
  372000    13.600001    561.79775    2.8149219 
  374000    13.623578    561.79775    2.7986433 
  376000    13.011365    561.79775    2.9104256 
  378000    13.329218    561.79775    2.8558988 
  380000    13.855409    561.79775    2.7391906 
  382000    13.822687    561.79775    2.7881609 
  384000    13.016826    561.79775    2.9132199 
  386000    13.553993    561.79775    2.8211574 
  388000    13.374308    561.79775    2.8412615 
  390000    13.158618    561.79775    2.8810838 
  392000     13.26543    561.79775    2.8480937 
  394000    13.573414    561.79775    2.7949195 
  396000    14.192145    561.79775    2.6982815 
  398000    13.172626    561.79775    2.8633497 
  400000    13.604252    561.79775    2.7901742 
  402000    12.420249    561.79775    2.9832443 
  404000    13.301083    561.79775    2.8668488 
  406000    14.055398    561.79775    2.6916276 
  408000    12.626463    561.79775    2.9411924 
  410000    13.371283    561.79775    2.8429025 
  412000    13.038097    561.79775    2.9007909 
  414000    13.739449    561.79775    2.7850974 
  416000    13.723098    561.79775    2.7699084 
  418000    13.523595    561.79775    2.8195846 
  420000     13.70617    561.79775    2.7647355 
  422000    13.035021    561.79775    2.9204401 
  424000    13.344705    561.79775     2.820794 
  426000     13.80024    561.79775    2.7410627 
  428000     12.80964    561.79775    2.9069702 
  430000    13.208198    561.79775    2.8464837 
  432000    12.535928    561.79775    2.9499819 
  434000    13.764349    561.79775    2.7556108 
  436000     13.41912    561.79775     2.830281 
  438000    13.906753    561.79775    2.7414188 
  440000    12.955709    561.79775     2.894027 
  442000     13.35173    561.79775    2.8259668 
  444000    13.284625    561.79775    2.8029852 
  446000    13.774476    561.79775    2.7346804 
  448000    14.075155    561.79775    2.7012604 
  450000     14.20033    561.79775     2.670487 
  452000    12.566702    561.79775    2.9487877 
  454000    13.711058    561.79775    2.7605655 
  456000    13.680325    561.79775    2.7643237 
  458000    13.879777    561.79775    2.7284038 
  460000    13.527155    561.79775    2.7940915 
  462000    13.492488    561.79775     2.781296 
  464000    12.798901    561.79775    2.8951087 
  466000    13.939972    561.79775    2.7242679 
  468000    12.655075    561.79775    2.9404585 
  470000    13.691855    561.79775    2.7551099 
  472000    12.881579    561.79775    2.8756874 
  474000    13.279099    561.79775    2.8164477 
  476000    12.825331    561.79775    2.9091368 
  478000    13.709847    561.79775    2.7597395 
  480000    13.038104    561.79775    2.8698292 
  482000    13.590789    561.79775    2.7488991 
  484000    13.806809    561.79775    2.7377639 
  486000    13.651483    561.79775    2.7562724 
  488000    13.213303    561.79775    2.8292273 
  490000    13.076498    561.79775    2.8550532 
  492000    13.455565    561.79775    2.7805122 
  494000     13.60212    561.79775    2.7478756 
  496000    13.367845    561.79775    2.8063195 
  498000    13.788661    561.79775    2.7219739 
  500000    13.238893    561.79775    2.8030095 
Loop time of 179.432 on 1 procs for 500000 steps with 500 atoms

Performance: 1203798.325 tau/day, 2786.570 timesteps/s
96.8% CPU use with 1 MPI tasks x no OpenMP threads

MPI task timing breakdown:
Section |  min time  |  avg time  |  max time  |%varavg| %total
---------------------------------------------------------------
Pair    | 145.91     | 145.91     | 145.91     |   0.0 | 81.32
Neigh   | 22.833     | 22.833     | 22.833     |   nan | 12.73
Comm    | 5.5129     | 5.5129     | 5.5129     |   0.0 |  3.07
Output  | 0.03148    | 0.03148    | 0.03148    |   0.0 |  0.02
Modify  | 4.1296     | 4.1296     | 4.1296     |   0.0 |  2.30
Other   |            | 1.014      |            |       |  0.56

Nlocal:    500 ave 500 max 500 min
Histogram: 1 0 0 0 0 0 0 0 0 0
Nghost:    1846 ave 1846 max 1846 min
Histogram: 1 0 0 0 0 0 0 0 0 0
Neighs:    20074 ave 20074 max 20074 min
Histogram: 1 0 0 0 0 0 0 0 0 0

Total # of neighbors = 20074
Ave neighs/atom = 40.148
Neighbor list builds = 25000
Dangerous builds not checked
Total wall time: 0:02:59
