LAMMPS (19 Oct 2016)
# equation of state for LJ

variable temp equal 3
variable rho  equal 0.87

units lj
atom_style atomic

lattice    fcc ${rho}
lattice    fcc 0.87
Lattice spacing in x,y,z = 1.66283 1.66283 1.66283
region box block 0 5 0 5 0 5
create_box 1 box
Created orthogonal box = (0 0 0) to (8.31413 8.31413 8.31413)
  1 by 1 by 1 MPI processor grid
create_atoms 1 box
Created 500 atoms
mass       1 1.0

pair_style lj/cut 2.5
pair_coeff 1 1 1.0 1.0 2.5

velocity   all create ${temp} 87287
velocity   all create 3 87287

neighbor   0.3 bin
neigh_modify every 20 delay 0 check no

fix        1 all nvt temp ${temp} ${temp} 100
fix        1 all nvt temp 3 ${temp} 100
fix        1 all nvt temp 3 3 100
dump       1 all custom 70000 dump_t${temp}_r${rho}.lammpstrj id type x y z
dump       1 all custom 70000 dump_t3_r${rho}.lammpstrj id type x y z
dump       1 all custom 70000 dump_t3_r0.87.lammpstrj id type x y z
thermo     2000
thermo_style  custom step press vol temp
thermo_modify flush yes

run 500000
Neighbor list info ...
  1 neighbor list requests
  update every 20 steps, delay 0 steps, check no
  max neighbors/atom: 2000, page size: 100000
  master list distance cutoff = 2.8
  ghost atom cutoff = 2.8
  binsize = 1.4 -> bins = 6 6 6
Memory usage per processor = 3.32155 Mbytes
Step Press Volume Temp 
       0   -3.5133628    574.71264            3 
    2000     6.495879    574.71264    1.5801309 
    4000    6.1165042    574.71264    1.6411611 
    6000    6.6931112    574.71264    1.5972702 
    8000    7.1242862    574.71264    1.5511624 
   10000    6.6420446    574.71264    1.6665917 
   12000    6.5654063    574.71264    1.7021165 
   14000    7.2744504    574.71264     1.647218 
   16000    6.8928409    574.71264    1.7148279 
   18000    7.1465323    574.71264    1.7233553 
   20000    7.3659061    574.71264    1.7187687 
   22000    7.1379165    574.71264    1.8012318 
   24000    7.6074678    574.71264    1.7627674 
   26000    7.7372624    574.71264    1.8010544 
   28000    8.0146074    574.71264    1.7769228 
   30000    8.3112551    574.71264    1.7996209 
   32000    7.8246079    574.71264    1.9206405 
   34000    8.1369422    574.71264    1.9052427 
   36000    8.0520233    574.71264    1.9790415 
   38000    8.4736052    574.71264    1.9538623 
   40000    8.9685667    574.71264    1.9306231 
   42000    9.0156678    574.71264    1.9795288 
   44000    8.6488404    574.71264    2.0568938 
   46000    8.7193369    574.71264    2.1001935 
   48000    9.1437426    574.71264    2.0881743 
   50000    9.3534236    574.71264    2.1160978 
   52000    9.3815504    574.71264    2.1326686 
   54000    9.0768716    574.71264    2.2788899 
   56000    9.3293253    574.71264     2.257131 
   58000    9.9269342    574.71264    2.2120189 
   60000    9.4918077    574.71264    2.3349392 
   62000    9.8068432    574.71264    2.3370985 
   64000    9.8381461    574.71264    2.3757521 
   66000    9.8832429    574.71264    2.3992885 
   68000    10.215869    574.71264    2.3878399 
   70000    10.842304    574.71264    2.3367285 
   72000    10.956716    574.71264    2.3745596 
   74000    10.759844    574.71264    2.4208831 
   76000    10.632362    574.71264    2.5043681 
   78000    10.843135    574.71264    2.5199863 
   80000    10.731914    574.71264    2.5562937 
   82000    11.135953    574.71264     2.547223 
   84000    11.332917    574.71264    2.5013346 
   86000    11.235619    574.71264    2.5690287 
   88000    11.498565    574.71264    2.5847986 
   90000    11.247808    574.71264    2.6379407 
   92000    10.986717    574.71264    2.7467418 
   94000    11.690183    574.71264    2.6474268 
   96000    11.191402    574.71264    2.7450035 
   98000     11.76219    574.71264    2.6754122 
  100000      11.5647    574.71264    2.7383344 
  102000    12.583523    574.71264    2.5943772 
  104000    12.005846    574.71264    2.7058834 
  106000    11.507178    574.71264    2.8283115 
  108000    12.194501    574.71264    2.7199155 
  110000    12.464282    574.71264    2.7058072 
  112000     12.11876    574.71264     2.771562 
  114000    12.242969    574.71264    2.7721933 
  116000    12.635848    574.71264    2.7280419 
  118000     12.57882    574.71264    2.7321069 
  120000    12.340517    574.71264    2.7908245 
  122000    12.790888    574.71264    2.7338426 
  124000    11.911409    574.71264    2.8906012 
  126000    12.576032    574.71264    2.7935149 
  128000    11.905949    574.71264    2.9058613 
  130000    12.137495    574.71264    2.8572607 
  132000     12.22779    574.71264    2.8710809 
  134000    11.602267    574.71264    2.9843201 
  136000     12.61989    574.71264    2.8244468 
  138000    12.243335    574.71264    2.8687515 
  140000    12.211055    574.71264    2.8983724 
  142000    12.837474    574.71264    2.7804339 
  144000    12.420032    574.71264    2.8682493 
  146000    12.087653    574.71264    2.9579268 
  148000    12.895286    574.71264    2.7826296 
  150000    12.926378    574.71264    2.7853252 
  152000    12.967646    574.71264     2.790094 
  154000    12.503337    574.71264    2.8805149 
  156000    12.447575    574.71264    2.8775403 
  158000    12.860837    574.71264    2.8297309 
  160000    12.754098    574.71264    2.8154683 
  162000    12.524703    574.71264    2.8757112 
  164000    12.169611    574.71264    2.9267036 
  166000    12.747498    574.71264    2.8023427 
  168000    11.883206    574.71264    2.9709331 
  170000    11.696085    574.71264    3.0027058 
  172000    12.451426    574.71264    2.8825487 
  174000    12.449255    574.71264    2.8892769 
  176000    12.191736    574.71264    2.9150956 
  178000    12.240028    574.71264    2.9196929 
  180000    12.802615    574.71264     2.803517 
  182000    12.494599    574.71264    2.8852412 
  184000    12.564683    574.71264    2.8824992 
  186000    12.968462    574.71264    2.7767647 
  188000    12.360526    574.71264    2.8875268 
  190000    12.504092    574.71264    2.8825439 
  192000    12.233188    574.71264    2.9194144 
  194000     13.06659    574.71264    2.7612919 
  196000     12.54457    574.71264    2.8431261 
  198000    11.887781    574.71264    2.9647672 
  200000    12.516262    574.71264    2.8734654 
  202000     12.29869    574.71264    2.8811172 
  204000    12.579197    574.71264    2.8706285 
  206000    12.521553    574.71264    2.8623096 
  208000    12.690655    574.71264    2.8451457 
  210000    12.565174    574.71264    2.8379241 
  212000    12.186478    574.71264    2.8931339 
  214000    12.469976    574.71264    2.8600225 
  216000    12.576073    574.71264    2.8525765 
  218000    12.006902    574.71264    2.9242159 
  220000    13.138926    574.71264    2.7355812 
  222000      12.2563    574.71264     2.914909 
  224000    12.807084    574.71264    2.8117434 
  226000    12.561589    574.71264    2.8404636 
  228000    12.867594    574.71264    2.7917849 
  230000    12.099983    574.71264    2.9091942 
  232000    12.702424    574.71264    2.7931664 
  234000    12.649348    574.71264    2.8146223 
  236000    12.612383    574.71264    2.8360089 
  238000    12.568905    574.71264    2.8130515 
  240000    11.859649    574.71264    2.9386533 
  242000    12.277732    574.71264    2.8816444 
  244000    12.634962    574.71264    2.8225883 
  246000    12.281592    574.71264    2.8779121 
  248000    12.316181    574.71264    2.8945831 
  250000    12.449763    574.71264    2.8339761 
  252000    12.256025    574.71264    2.8795971 
  254000    12.349727    574.71264    2.8415233 
  256000    13.223073    574.71264    2.6965415 
  258000    12.354649    574.71264    2.8722166 
  260000    12.074387    574.71264    2.8992662 
  262000    12.374119    574.71264    2.8426381 
  264000     12.37304    574.71264    2.8484421 
  266000     12.11477    574.71264    2.9067562 
  268000    12.436967    574.71264    2.8536105 
  270000    12.123622    574.71264    2.8712124 
  272000    12.547311    574.71264    2.8120465 
  274000    12.634504    574.71264    2.7841642 
  276000    12.595226    574.71264    2.8299543 
  278000    12.343061    574.71264    2.8512054 
  280000    12.193274    574.71264    2.8478155 
  282000    12.166095    574.71264    2.8734847 
  284000    12.161322    574.71264    2.8903269 
  286000    11.891489    574.71264    2.8978541 
  288000    12.060097    574.71264    2.8822219 
  290000    11.908393    574.71264    2.9136879 
  292000    12.667089    574.71264    2.7625955 
  294000    12.660856    574.71264    2.8003393 
  296000    11.988543    574.71264    2.8890671 
  298000    11.849283    574.71264    2.9393978 
  300000    12.877717    574.71264    2.7555731 
  302000    12.672556    574.71264    2.7544412 
  304000    12.310467    574.71264    2.8506526 
  306000    12.471773    574.71264     2.817376 
  308000    11.742331    574.71264    2.9487383 
  310000    12.901487    574.71264    2.7364824 
  312000     11.58519    574.71264    2.9538626 
  314000    12.721666    574.71264    2.7775512 
  316000    12.482508    574.71264    2.7973695 
  318000    12.362515    574.71264    2.8273173 
  320000    12.572335    574.71264    2.8093423 
  322000    12.409267    574.71264    2.8110464 
  324000    11.873374    574.71264    2.9208575 
  326000    11.826732    574.71264    2.9067872 
  328000    12.891272    574.71264    2.7268889 
  330000    12.690943    574.71264    2.7783218 
  332000     12.16219    574.71264    2.8187125 
  334000    12.020919    574.71264    2.8795412 
  336000    12.837328    574.71264     2.737389 
  338000    12.238844    574.71264    2.8343368 
  340000    12.341177    574.71264    2.8175208 
  342000    12.239388    574.71264    2.8419778 
  344000    12.755473    574.71264    2.7584344 
  346000    12.748611    574.71264    2.7483908 
  348000     12.36779    574.71264    2.8156052 
  350000    12.411911    574.71264    2.8097532 
  352000    12.683506    574.71264    2.7481454 
  354000    12.844814    574.71264    2.7201075 
  356000    12.131278    574.71264    2.8502394 
  358000    12.597613    574.71264    2.7682031 
  360000    11.741291    574.71264    2.9336603 
  362000    12.482366    574.71264    2.7826194 
  364000    12.569255    574.71264    2.7848443 
  366000    12.596386    574.71264     2.765857 
  368000    12.192709    574.71264    2.8359742 
  370000     12.06764    574.71264    2.8456716 
  372000    11.867469    574.71264    2.8954235 
  374000    12.198182    574.71264    2.8378521 
  376000    12.142251    574.71264    2.8473018 
  378000    12.183246    574.71264    2.8118963 
  380000    12.526723    574.71264    2.7688457 
  382000    12.041348    574.71264     2.861637 
  384000     12.21173    574.71264    2.8382074 
  386000     12.61482    574.71264    2.7346559 
  388000    11.981539    574.71264    2.8565557 
  390000    12.256684    574.71264    2.8196174 
  392000    12.263477    574.71264    2.8114471 
  394000    12.343359    574.71264    2.8016832 
  396000    12.416112    574.71264    2.7826779 
  398000    11.652769    574.71264    2.9085798 
  400000    12.643054    574.71264    2.7414782 
  402000    12.455106    574.71264    2.7572912 
  404000    12.235683    574.71264     2.818347 
  406000    11.544571    574.71264    2.9212778 
  408000    12.454239    574.71264    2.7864129 
  410000    12.474148    574.71264    2.7488344 
  412000    11.769827    574.71264    2.8918082 
  414000    12.126595    574.71264    2.8077956 
  416000    11.981822    574.71264    2.8292049 
  418000    12.555563    574.71264     2.746572 
  420000    13.023758    574.71264    2.6874187 
  422000    11.703025    574.71264    2.8938868 
  424000    12.137142    574.71264     2.819122 
  426000    11.770789    574.71264    2.8790682 
  428000    11.914437    574.71264    2.8519907 
  430000    11.974104    574.71264    2.8703359 
  432000    12.107316    574.71264    2.8234062 
  434000    12.490497    574.71264     2.758771 
  436000    12.140395    574.71264    2.8178998 
  438000    12.226389    574.71264    2.8222226 
  440000     12.20254    574.71264    2.7971039 
  442000    11.968479    574.71264     2.834661 
  444000    11.807154    574.71264    2.8710273 
  446000    12.247938    574.71264    2.7754824 
  448000    11.967679    574.71264    2.8405865 
  450000    12.687487    574.71264    2.7127849 
  452000    11.975663    574.71264    2.8449996 
  454000    12.214252    574.71264    2.7898219 
  456000    12.083081    574.71264    2.8105441 
  458000    12.345067    574.71264    2.7746532 
  460000     12.38847    574.71264    2.7964299 
  462000    12.019417    574.71264    2.8196458 
  464000    12.022659    574.71264    2.8319339 
  466000    12.171629    574.71264    2.8000612 
  468000    12.294181    574.71264    2.7546048 
  470000    12.695603    574.71264    2.7119085 
  472000    12.663292    574.71264    2.7367878 
  474000    11.977292    574.71264     2.836632 
  476000     12.57197    574.71264    2.7282416 
  478000    12.847907    574.71264    2.6825759 
  480000    12.821938    574.71264    2.6993175 
  482000    13.093219    574.71264    2.6432812 
  484000    11.636616    574.71264     2.878637 
  486000    12.010869    574.71264    2.8029465 
  488000    11.946707    574.71264    2.8144119 
  490000     12.30239    574.71264    2.7598546 
  492000    12.230467    574.71264    2.7868217 
  494000    12.075014    574.71264    2.7960031 
  496000    12.044376    574.71264    2.8074833 
  498000    12.171866    574.71264    2.7914842 
  500000    11.632288    574.71264    2.8875099 
Loop time of 177.147 on 1 procs for 500000 steps with 500 atoms

Performance: 1219322.977 tau/day, 2822.507 timesteps/s
96.5% CPU use with 1 MPI tasks x no OpenMP threads

MPI task timing breakdown:
Section |  min time  |  avg time  |  max time  |%varavg| %total
---------------------------------------------------------------
Pair    | 143.58     | 143.58     | 143.58     |   0.0 | 81.05
Neigh   | 22.807     | 22.807     | 22.807     |   nan | 12.87
Comm    | 5.5397     | 5.5397     | 5.5397     |   0.0 |  3.13
Output  | 0.014975   | 0.014975   | 0.014975   |   0.0 |  0.01
Modify  | 4.1687     | 4.1687     | 4.1687     |   0.0 |  2.35
Other   |            | 1.041      |            |       |  0.59

Nlocal:    500 ave 500 max 500 min
Histogram: 1 0 0 0 0 0 0 0 0 0
Nghost:    1847 ave 1847 max 1847 min
Histogram: 1 0 0 0 0 0 0 0 0 0
Neighs:    19506 ave 19506 max 19506 min
Histogram: 1 0 0 0 0 0 0 0 0 0

Total # of neighbors = 19506
Ave neighs/atom = 39.012
Neighbor list builds = 25000
Dangerous builds not checked
Total wall time: 0:02:57
