LAMMPS (19 Oct 2016)
# equation of state for LJ

variable temp equal 3
variable rho  equal 0.78

units lj
atom_style atomic

lattice    fcc ${rho}
lattice    fcc 0.78
Lattice spacing in x,y,z = 1.72447 1.72447 1.72447
region box block 0 5 0 5 0 5
create_box 1 box
Created orthogonal box = (0 0 0) to (8.62234 8.62234 8.62234)
  1 by 1 by 1 MPI processor grid
create_atoms 1 box
Created 500 atoms
mass       1 1.0

pair_style lj/cut 2.5
pair_coeff 1 1 1.0 1.0 2.5

velocity   all create ${temp} 87287
velocity   all create 3 87287

neighbor   0.3 bin
neigh_modify every 20 delay 0 check no

fix        1 all nvt temp ${temp} ${temp} 100
fix        1 all nvt temp 3 ${temp} 100
fix        1 all nvt temp 3 3 100
dump       1 all custom 70000 dump_t${temp}_r${rho}.lammpstrj id type x y z
dump       1 all custom 70000 dump_t3_r${rho}.lammpstrj id type x y z
dump       1 all custom 70000 dump_t3_r0.78.lammpstrj id type x y z
thermo     2000
thermo_style  custom step press vol temp
thermo_modify flush yes

run 500000
Neighbor list info ...
  1 neighbor list requests
  update every 20 steps, delay 0 steps, check no
  max neighbors/atom: 2000, page size: 100000
  master list distance cutoff = 2.8
  ghost atom cutoff = 2.8
  binsize = 1.4 -> bins = 7 7 7
Memory usage per processor = 3.32306 Mbytes
Step Press Volume Temp 
       0   -3.7833061    641.02564            3 
    2000    5.1876316    641.02564    1.7366356 
    4000     4.854602    641.02564    1.8092689 
    6000    5.0511559    641.02564    1.8004993 
    8000    4.5725576    641.02564    1.9102999 
   10000    4.6322906    641.02564    1.9305768 
   12000    4.9030384    641.02564    1.9077558 
   14000    5.1361061    641.02564    1.8685825 
   16000    4.8361453    641.02564     1.962703 
   18000    5.1028531    641.02564     1.950642 
   20000    5.4358024    641.02564    1.9080961 
   22000    5.2801964    641.02564    1.9891425 
   24000     5.035423    641.02564     2.030563 
   26000    5.4653339    641.02564    2.0245453 
   28000    5.4035458    641.02564    2.0830339 
   30000    5.2546415    641.02564    2.1093009 
   32000    5.8053156    641.02564    2.0632564 
   34000     5.976491    641.02564    2.0681311 
   36000    5.5315379    641.02564    2.1581323 
   38000    5.9411049    641.02564    2.1330342 
   40000     6.496177    641.02564    2.0946511 
   42000    6.3626346    641.02564    2.1464695 
   44000    6.4491988    641.02564    2.1806668 
   46000    6.4604977    641.02564    2.2143925 
   48000    6.1188217    641.02564    2.3056004 
   50000    6.3134495    641.02564    2.3049539 
   52000    6.2431682    641.02564     2.350698 
   54000    6.5063136    641.02564    2.3164782 
   56000    5.8886629    641.02564    2.4677235 
   58000    6.7086454    641.02564    2.3735671 
   60000    7.3000617    641.02564    2.3441261 
   62000    6.5574239    641.02564    2.4468824 
   64000    6.6239416    641.02564     2.471182 
   66000    7.0791601    641.02564    2.4335889 
   68000    7.5968786    641.02564    2.3713452 
   70000    7.1515904    641.02564    2.4899569 
   72000    7.3701116    641.02564    2.4750546 
   74000    7.4316297    641.02564     2.483035 
   76000    7.1626112    641.02564    2.5794636 
   78000    6.8269097    641.02564    2.6437691 
   80000    7.7704404    641.02564     2.554882 
   82000    7.0992135    641.02564    2.6479226 
   84000    7.9376729    641.02564    2.5261007 
   86000     7.281053    641.02564    2.6576876 
   88000    7.8905939    641.02564    2.5792571 
   90000    7.3593529    641.02564    2.6921431 
   92000    7.4081552    641.02564    2.7197566 
   94000     7.650253    641.02564    2.6504193 
   96000    7.3628408    641.02564    2.7209933 
   98000    7.8998213    641.02564    2.6766454 
  100000    7.7563391    641.02564    2.6970625 
  102000    7.9772485    641.02564    2.6631732 
  104000    7.8695294    641.02564    2.6854653 
  106000    7.8286384    641.02564    2.7217735 
  108000    7.4763789    641.02564    2.7930883 
  110000    8.0516383    641.02564    2.7149587 
  112000    8.3721423    641.02564    2.6601961 
  114000    7.7656389    641.02564    2.7847645 
  116000    8.2070562    641.02564    2.7169526 
  118000    7.6036243    641.02564    2.8285035 
  120000    8.0948882    641.02564     2.723295 
  122000     7.940483    641.02564    2.7715741 
  124000    7.4911703    641.02564    2.8504951 
  126000     7.877868    641.02564    2.8056202 
  128000    8.2773539    641.02564    2.7370926 
  130000    7.6435049    641.02564    2.8426135 
  132000    8.1843669    641.02564    2.7412132 
  134000    7.6051089    641.02564    2.8636785 
  136000    8.0695258    641.02564    2.7706447 
  138000    8.5321867    641.02564    2.7055882 
  140000     8.319764    641.02564    2.7600711 
  142000    7.7958379    641.02564    2.8336575 
  144000    8.5081251    641.02564     2.715654 
  146000    8.2201438    641.02564     2.762297 
  148000    8.3920506    641.02564    2.7645859 
  150000    8.2745189    641.02564    2.7663418 
  152000    8.3771272    641.02564    2.7612994 
  154000    7.9361715    641.02564    2.8324127 
  156000    8.2415308    641.02564    2.7963744 
  158000    8.3628221    641.02564    2.7657984 
  160000    8.2076138    641.02564    2.7682081 
  162000    8.1231642    641.02564    2.7888574 
  164000     8.296626    641.02564     2.764121 
  166000    7.8652456    641.02564    2.8434128 
  168000    8.1046382    641.02564    2.8149723 
  170000    7.9830053    641.02564    2.8241332 
  172000    8.2396676    641.02564     2.759423 
  174000    8.1180209    641.02564    2.7855828 
  176000    8.2893901    641.02564    2.7733885 
  178000    7.6214969    641.02564    2.8940262 
  180000    7.9202815    641.02564    2.8594766 
  182000    8.1272962    641.02564    2.7980602 
  184000    7.9711599    641.02564    2.8277506 
  186000    8.2236246    641.02564    2.7782135 
  188000    8.2506931    641.02564    2.7701866 
  190000     8.439256    641.02564    2.7352491 
  192000     8.202017    641.02564    2.7831991 
  194000    8.0860658    641.02564    2.8010419 
  196000    7.7165465    641.02564    2.8636625 
  198000    7.9977199    641.02564    2.7967026 
  200000    7.8166015    641.02564    2.8427662 
  202000    8.2070388    641.02564    2.7796386 
  204000     7.983241    641.02564    2.8251698 
  206000    8.4509787    641.02564    2.7718126 
  208000    8.5056022    641.02564    2.7290731 
  210000    7.8743123    641.02564    2.8345935 
  212000    7.8922478    641.02564    2.8360702 
  214000    8.8885286    641.02564    2.6762435 
  216000    8.0889688    641.02564    2.8009938 
  218000     7.886241    641.02564    2.8302755 
  220000    8.1822698    641.02564    2.7910551 
  222000    7.2379783    641.02564    2.9564248 
  224000    8.3505797    641.02564    2.7552346 
  226000    8.4736341    641.02564    2.7194363 
  228000    8.1036036    641.02564    2.7872543 
  230000    7.8077629    641.02564    2.8424488 
  232000    8.1899397    641.02564    2.7568391 
  234000    8.1623319    641.02564    2.7535968 
  236000    7.9208301    641.02564      2.81694 
  238000    7.5757117    641.02564    2.8838398 
  240000    8.2151923    641.02564    2.7592757 
  242000    7.7431723    641.02564    2.8482823 
  244000    8.0604363    641.02564    2.7941638 
  246000     8.155486    641.02564    2.7932361 
  248000    8.6472413    641.02564    2.6641422 
  250000     8.281344    641.02564    2.7393879 
  252000    8.5952631    641.02564     2.670296 
  254000    7.9495787    641.02564    2.8023618 
  256000    8.0088576    641.02564    2.7997441 
  258000    8.1256117    641.02564    2.7602997 
  260000    8.2049268    641.02564    2.7562578 
  262000    7.9407298    641.02564    2.7874855 
  264000    8.2849607    641.02564    2.7480185 
  266000    7.9085731    641.02564     2.825332 
  268000    7.7906918    641.02564    2.8235439 
  270000    8.5215291    641.02564     2.700743 
  272000     8.024119    641.02564    2.8010912 
  274000    7.9715931    641.02564    2.7716668 
  276000    8.4099132    641.02564    2.7133643 
  278000    8.5972745    641.02564    2.6604367 
  280000    7.4283349    641.02564    2.8788075 
  282000    8.6173414    641.02564    2.7010007 
  284000    8.2350021    641.02564    2.7595071 
  286000    7.9645623    641.02564    2.7765767 
  288000    8.2162218    641.02564    2.7435326 
  290000    8.0524009    641.02564    2.7940069 
  292000     7.984474    641.02564     2.797781 
  294000     7.832414    641.02564    2.8101366 
  296000    7.9369293    641.02564    2.8003793 
  298000    8.4912481    641.02564    2.6837947 
  300000    7.5712691    641.02564    2.8405091 
  302000    7.4087723    641.02564    2.8825266 
  304000    8.0335252    641.02564    2.7706828 
  306000    8.1497784    641.02564    2.7615334 
  308000    7.9920126    641.02564    2.7609747 
  310000    8.3152006    641.02564    2.7114958 
  312000    8.0510107    641.02564    2.7842592 
  314000    8.1446995    641.02564     2.773123 
  316000    8.1051514    641.02564    2.7756775 
  318000    7.8755713    641.02564    2.8209211 
  320000     7.758542    641.02564    2.8241218 
  322000    8.3685223    641.02564    2.6866887 
  324000     8.113109    641.02564    2.7672611 
  326000    7.9142858    641.02564    2.7832948 
  328000    7.9496594    641.02564    2.7880326 
  330000    8.1783509    641.02564    2.7347575 
  332000    8.2546007    641.02564     2.718251 
  334000    7.8474903    641.02564    2.7931566 
  336000    7.4771297    641.02564    2.8498334 
  338000     8.452527    641.02564    2.6699598 
  340000    8.1794211    641.02564    2.7494819 
  342000    7.6316277    641.02564    2.8203546 
  344000    7.9667394    641.02564    2.7865052 
  346000     7.847167    641.02564    2.7960485 
  348000    7.9038959    641.02564    2.7847561 
  350000    7.5342499    641.02564    2.8590627 
  352000    8.2337139    641.02564      2.72361 
  354000    8.0901679    641.02564    2.7500088 
  356000    7.9604245    641.02564    2.7775996 
  358000    7.6676706    641.02564    2.8106294 
  360000     7.801578    641.02564     2.789356 
  362000    8.0105243    641.02564    2.7620827 
  364000    8.0709084    641.02564    2.7420414 
  366000     7.608303    641.02564    2.8243051 
  368000    7.7309629    641.02564    2.8277851 
  370000    8.1493215    641.02564    2.7276621 
  372000    8.5768068    641.02564    2.6894019 
  374000    8.1640131    641.02564    2.7558993 
  376000    7.6269872    641.02564    2.8224052 
  378000    8.3058636    641.02564    2.7228502 
  380000    7.9496136    641.02564     2.778978 
  382000    8.0448372    641.02564    2.7403217 
  384000     7.906272    641.02564    2.7832789 
  386000     7.724119    641.02564     2.812186 
  388000    8.4599368    641.02564    2.6782628 
  390000     7.841754    641.02564    2.7696025 
  392000    7.9766291    641.02564    2.7848119 
  394000    7.5703165    641.02564    2.8328284 
  396000    7.6142462    641.02564    2.8247455 
  398000    7.8637691    641.02564    2.7826808 
  400000    8.2778707    641.02564    2.6967621 
  402000    8.2112377    641.02564    2.7457084 
  404000    7.4161906    641.02564    2.8597353 
  406000    8.5532387    641.02564    2.6586892 
  408000    7.3067157    641.02564      2.87572 
  410000    8.4124917    641.02564    2.6631532 
  412000    8.4131111    641.02564    2.6797215 
  414000    8.0172407    641.02564    2.7465688 
  416000    7.7972442    641.02564     2.806512 
  418000    7.5523567    641.02564    2.8335183 
  420000    8.8879181    641.02564    2.6413714 
  422000    7.8869151    641.02564    2.7960364 
  424000    8.2486104    641.02564    2.6881735 
  426000    8.0021914    641.02564    2.7628664 
  428000    8.1155629    641.02564    2.7611335 
  430000    7.5856678    641.02564    2.8328356 
  432000    7.9746762    641.02564    2.7506695 
  434000    8.1182048    641.02564    2.7315008 
  436000    8.1299379    641.02564    2.7027488 
  438000    8.0685353    641.02564    2.7511123 
  440000    8.1482182    641.02564    2.7257213 
  442000    7.9793017    641.02564    2.7534117 
  444000    7.8229435    641.02564    2.8252453 
  446000    8.4286246    641.02564    2.6921429 
  448000    8.3926995    641.02564    2.6575718 
  450000    8.1567422    641.02564    2.7369698 
  452000    7.9721359    641.02564    2.7529201 
  454000    7.9632554    641.02564    2.7441338 
  456000    7.6559771    641.02564    2.8082017 
  458000    8.0328648    641.02564    2.7383707 
  460000    7.9368159    641.02564    2.7861318 
  462000    7.2916113    641.02564    2.8553302 
  464000    7.3782199    641.02564    2.8453361 
  466000    8.0885411    641.02564      2.73861 
  468000    7.4553919    641.02564    2.8387728 
  470000     7.645672    641.02564    2.8009852 
  472000     7.646598    641.02564     2.826248 
  474000    7.9670291    641.02564    2.7263826 
  476000    8.0768507    641.02564    2.7095492 
  478000    8.4112877    641.02564    2.6611231 
  480000    7.4433774    641.02564     2.862017 
  482000    8.2144062    641.02564     2.729172 
  484000    8.0509406    641.02564    2.7368712 
  486000    7.7097491    641.02564    2.8121926 
  488000    7.5650151    641.02564    2.8094212 
  490000    7.8630049    641.02564    2.7563876 
  492000      8.72356    641.02564    2.5949516 
  494000    8.2232442    641.02564    2.6977464 
  496000    8.0854252    641.02564    2.7585311 
  498000    8.0074911    641.02564    2.7492818 
  500000    8.1053181    641.02564    2.7565923 
Loop time of 160.294 on 1 procs for 500000 steps with 500 atoms

Performance: 1347524.657 tau/day, 3119.270 timesteps/s
96.3% CPU use with 1 MPI tasks x no OpenMP threads

MPI task timing breakdown:
Section |  min time  |  avg time  |  max time  |%varavg| %total
---------------------------------------------------------------
Pair    | 131.25     | 131.25     | 131.25     |   0.0 | 81.88
Neigh   | 18.613     | 18.613     | 18.613     |   0.0 | 11.61
Comm    | 5.3386     | 5.3386     | 5.3386     |   0.0 |  3.33
Output  | 0.033191   | 0.033191   | 0.033191   |   0.0 |  0.02
Modify  | 4.0996     | 4.0996     | 4.0996     |   0.0 |  2.56
Other   |            | 0.9621     |            |       |  0.60

Nlocal:    500 ave 500 max 500 min
Histogram: 1 0 0 0 0 0 0 0 0 0
Nghost:    1749 ave 1749 max 1749 min
Histogram: 1 0 0 0 0 0 0 0 0 0
Neighs:    17568 ave 17568 max 17568 min
Histogram: 1 0 0 0 0 0 0 0 0 0

Total # of neighbors = 17568
Ave neighs/atom = 35.136
Neighbor list builds = 25000
Dangerous builds not checked
Total wall time: 0:02:40
