LAMMPS (19 Oct 2016)
# equation of state for LJ

variable temp equal 3
variable rho  equal 0.77

units lj
atom_style atomic

lattice    fcc ${rho}
lattice    fcc 0.77
Lattice spacing in x,y,z = 1.7319 1.7319 1.7319
region box block 0 5 0 5 0 5
create_box 1 box
Created orthogonal box = (0 0 0) to (8.65951 8.65951 8.65951)
  1 by 1 by 1 MPI processor grid
create_atoms 1 box
Created 500 atoms
mass       1 1.0

pair_style lj/cut 2.5
pair_coeff 1 1 1.0 1.0 2.5

velocity   all create ${temp} 87287
velocity   all create 3 87287

neighbor   0.3 bin
neigh_modify every 20 delay 0 check no

fix        1 all nvt temp ${temp} ${temp} 100
fix        1 all nvt temp 3 ${temp} 100
fix        1 all nvt temp 3 3 100
dump       1 all custom 70000 dump_t${temp}_r${rho}.lammpstrj id type x y z
dump       1 all custom 70000 dump_t3_r${rho}.lammpstrj id type x y z
dump       1 all custom 70000 dump_t3_r0.77.lammpstrj id type x y z
thermo     2000
thermo_style  custom step press vol temp
thermo_modify flush yes

run 500000
Neighbor list info ...
  1 neighbor list requests
  update every 20 steps, delay 0 steps, check no
  max neighbors/atom: 2000, page size: 100000
  master list distance cutoff = 2.8
  ghost atom cutoff = 2.8
  binsize = 1.4 -> bins = 7 7 7
Memory usage per processor = 3.32306 Mbytes
Step Press Volume Temp 
       0    -3.752583    649.35065            3 
    2000    4.4386181    649.35065    1.8772247 
    4000    4.7924895    649.35065    1.8234004 
    6000    4.8190821    649.35065    1.8478627 
    8000    4.2924977    649.35065    1.9472531 
   10000      4.70309    649.35065    1.9470496 
   12000    4.4788704    649.35065    1.9873455 
   14000    4.9743461    649.35065    1.9142591 
   16000    4.9186405    649.35065    1.9332301 
   18000    5.1860205    649.35065    1.9063633 
   20000     5.376432    649.35065    1.9133832 
   22000    5.1041434    649.35065    1.9968393 
   24000    4.9893031    649.35065    2.0326589 
   26000    5.3418185    649.35065    2.0471682 
   28000    5.0876735    649.35065    2.0755844 
   30000    5.7544268    649.35065    2.0294701 
   32000    5.6985053    649.35065    2.0576016 
   34000    5.2282464    649.35065     2.186276 
   36000    5.8535078    649.35065    2.1180289 
   38000     5.158369    649.35065    2.2731124 
   40000    5.9535407    649.35065    2.1543005 
   42000    6.0382021    649.35065    2.1663662 
   44000     5.620754    649.35065    2.2925481 
   46000    5.6218063    649.35065    2.3159418 
   48000    6.1476992    649.35065    2.2830597 
   50000    6.1450429    649.35065    2.3108482 
   52000    6.6682131    649.35065    2.2509133 
   54000    6.4424009    649.35065    2.3443372 
   56000    6.5812042    649.35065    2.3342927 
   58000    6.3956328    649.35065    2.3949934 
   60000    6.1396566    649.35065    2.4644815 
   62000    6.7094067    649.35065    2.3980758 
   64000    6.5805926    649.35065    2.4381391 
   66000     6.531015    649.35065    2.5004036 
   68000    6.7237522    649.35065    2.4927474 
   70000    6.5901395    649.35065     2.552703 
   72000    6.6925194    649.35065     2.517173 
   74000    6.9630448    649.35065    2.5206715 
   76000    6.9882896    649.35065    2.5419271 
   78000    7.0573738    649.35065    2.5345999 
   80000    7.1303607    649.35065    2.5313354 
   82000    6.9272627    649.35065    2.5973671 
   84000    7.0679739    649.35065      2.62698 
   86000    6.9613331    649.35065    2.6503835 
   88000    6.9764466    649.35065    2.6675625 
   90000     7.508602    649.35065    2.5903834 
   92000    7.0368339    649.35065    2.6842184 
   94000    7.1897524    649.35065    2.6893914 
   96000    7.5766005    649.35065    2.6702007 
   98000    7.4384743    649.35065    2.7034948 
  100000    7.1794232    649.35065    2.7223049 
  102000    7.0503862    649.35065    2.7793893 
  104000      7.43683    649.35065    2.6796815 
  106000    7.4053289    649.35065    2.7378976 
  108000    7.4359929    649.35065    2.7289871 
  110000    7.3724101    649.35065    2.7550485 
  112000    7.6991849    649.35065    2.7075524 
  114000    7.6814369    649.35065    2.7074165 
  116000     7.631696    649.35065    2.7236478 
  118000    7.4950888    649.35065    2.7818952 
  120000    7.4842045    649.35065    2.7625716 
  122000    7.6641774    649.35065      2.73788 
  124000     8.285362    649.35065    2.6242977 
  126000    7.7378801    649.35065    2.7312868 
  128000    7.5782681    649.35065     2.780443 
  130000    7.7128216    649.35065    2.7543951 
  132000    7.9142915    649.35065     2.716369 
  134000     7.258158    649.35065    2.8482334 
  136000    7.5198075    649.35065    2.7964947 
  138000    8.6040778    649.35065    2.6233423 
  140000    7.5949167    649.35065    2.8187364 
  142000    8.0608529    649.35065    2.7322997 
  144000    7.7000746    649.35065    2.7755832 
  146000    8.3826033    649.35065    2.6498564 
  148000    7.6665092    649.35065    2.7829764 
  150000    7.9951064    649.35065    2.7559805 
  152000    7.9254173    649.35065    2.7562101 
  154000    7.6773093    649.35065    2.7977815 
  156000    7.9822226    649.35065    2.7470893 
  158000    8.1803615    649.35065     2.694676 
  160000     8.030047    649.35065     2.752495 
  162000    7.7163671    649.35065    2.8009513 
  164000    7.7669518    649.35065    2.7890904 
  166000    7.4413445    649.35065      2.85851 
  168000    7.7230648    649.35065    2.8007262 
  170000    7.5226332    649.35065    2.8457035 
  172000     7.685025    649.35065    2.8120596 
  174000      8.19352    649.35065    2.6574485 
  176000    8.7123492    649.35065    2.6353016 
  178000    7.7926237    649.35065    2.7640259 
  180000    8.0561866    649.35065    2.7468075 
  182000    8.1032211    649.35065     2.744149 
  184000     7.678004    649.35065     2.805658 
  186000     7.529221    649.35065    2.7984487 
  188000    7.3822937    649.35065    2.8636843 
  190000    7.6301325    649.35065    2.7993061 
  192000     8.563974    649.35065    2.6396331 
  194000    7.7287433    649.35065     2.792148 
  196000    7.4328289    649.35065    2.8483859 
  198000    7.6551882    649.35065    2.7999968 
  200000    6.9398493    649.35065     2.912875 
  202000     7.233861    649.35065    2.8797442 
  204000    7.3803355    649.35065    2.8530108 
  206000    7.8192075    649.35065    2.7900801 
  208000    7.5243283    649.35065    2.8078131 
  210000    7.8621222    649.35065    2.7727248 
  212000    7.6221529    649.35065    2.8050849 
  214000    7.5495246    649.35065    2.8155434 
  216000    7.8813558    649.35065    2.7621678 
  218000    7.2770149    649.35065    2.8636591 
  220000    7.4163453    649.35065    2.8225543 
  222000    7.1171581    649.35065     2.884529 
  224000     8.309809    649.35065    2.6704422 
  226000    7.6111562    649.35065    2.8019886 
  228000    7.6962791    649.35065     2.779447 
  230000    7.8340634    649.35065    2.7675215 
  232000    7.8840805    649.35065    2.7565788 
  234000    7.0539634    649.35065    2.8815011 
  236000    7.6586541    649.35065    2.7664935 
  238000    7.4959305    649.35065    2.8199254 
  240000     7.818174    649.35065    2.7536412 
  242000    8.1321469    649.35065    2.7058527 
  244000    7.7252772    649.35065    2.8041539 
  246000    7.2723934    649.35065    2.8487149 
  248000    7.6882159    649.35065    2.7636404 
  250000    7.8137985    649.35065    2.7767642 
  252000    7.6662837    649.35065    2.7922514 
  254000    7.4257574    649.35065    2.8296038 
  256000    7.7890186    649.35065    2.7632155 
  258000    7.2304902    649.35065    2.8459314 
  260000    8.0501461    649.35065    2.7075597 
  262000    8.1298198    649.35065     2.689417 
  264000    7.3894133    649.35065    2.7978839 
  266000    7.6372969    649.35065    2.7653154 
  268000    7.4100781    649.35065    2.8446099 
  270000    7.3400222    649.35065    2.8420128 
  272000    7.3139861    649.35065    2.8602668 
  274000    7.8448942    649.35065    2.7331862 
  276000    7.3910719    649.35065    2.8534516 
  278000    8.0181237    649.35065    2.7076395 
  280000    7.7576551    649.35065    2.7505779 
  282000    7.8436435    649.35065    2.7440737 
  284000    7.5641056    649.35065    2.7828972 
  286000    7.8554701    649.35065    2.7379158 
  288000       7.5642    649.35065    2.7922854 
  290000    7.6935891    649.35065    2.7439176 
  292000     7.540535    649.35065    2.8129003 
  294000    7.7641364    649.35065    2.7547991 
  296000     8.313669    649.35065    2.6893666 
  298000    7.7719173    649.35065    2.7313649 
  300000     7.628564    649.35065    2.7933739 
  302000    8.3091117    649.35065     2.674338 
  304000    6.9644347    649.35065    2.9034807 
  306000    7.0989505    649.35065    2.8775532 
  308000    7.9105956    649.35065    2.7151985 
  310000     8.035114    649.35065    2.7036678 
  312000    7.5047998    649.35065    2.7751834 
  314000    7.9676816    649.35065    2.7288658 
  316000    7.7326862    649.35065    2.7849974 
  318000    7.3514866    649.35065    2.7987736 
  320000    8.2971679    649.35065    2.6420625 
  322000    7.7624831    649.35065    2.7312507 
  324000    7.4037066    649.35065     2.787656 
  326000    8.1380865    649.35065    2.6473098 
  328000    7.5336204    649.35065    2.7878577 
  330000    8.0130709    649.35065    2.7005555 
  332000    8.0892079    649.35065    2.6812086 
  334000    7.5788961    649.35065    2.7681402 
  336000    7.0872018    649.35065    2.8840547 
  338000    7.7545109    649.35065    2.7338344 
  340000      7.55986    649.35065    2.7633778 
  342000    7.5981841    649.35065    2.7624138 
  344000    8.0041579    649.35065    2.6947387 
  346000     7.399095    649.35065     2.814054 
  348000    7.6348909    649.35065    2.7773012 
  350000    7.5364034    649.35065    2.7886637 
  352000    7.5858442    649.35065    2.7730699 
  354000    8.2987599    649.35065    2.6361164 
  356000    7.8252398    649.35065    2.7343503 
  358000    7.7460779    649.35065    2.7391875 
  360000    7.6756851    649.35065    2.7577843 
  362000    7.2584645    649.35065    2.8285843 
  364000    7.7968034    649.35065    2.7102211 
  366000    7.9113639    649.35065    2.7066814 
  368000    8.1257836    649.35065    2.6848958 
  370000    7.6699906    649.35065    2.7373655 
  372000    6.9425984    649.35065    2.8955628 
  374000    7.7676068    649.35065    2.7309551 
  376000    7.5786038    649.35065    2.7662363 
  378000    7.6221977    649.35065    2.7782966 
  380000    7.4244757    649.35065    2.7973098 
  382000     7.298809    649.35065    2.8012688 
  384000    7.9173884    649.35065     2.705185 
  386000    7.7940889    649.35065    2.7473157 
  388000    7.3748712    649.35065     2.791656 
  390000    7.5887045    649.35065    2.7538282 
  392000    7.4067557    649.35065    2.7913977 
  394000       7.5453    649.35065    2.7714259 
  396000    7.6246162    649.35065    2.7894172 
  398000    7.9498693    649.35065    2.6968386 
  400000    7.8226175    649.35065     2.720268 
  402000    7.5412042    649.35065    2.7644116 
  404000    7.7462865    649.35065    2.7467468 
  406000    8.1059663    649.35065    2.6784259 
  408000    7.8148745    649.35065    2.6988436 
  410000    7.8850129    649.35065    2.6925484 
  412000    7.8441831    649.35065    2.6982614 
  414000    8.2046827    649.35065    2.6450694 
  416000     7.529169    649.35065    2.7821597 
  418000    7.7799281    649.35065    2.7130557 
  420000    6.9258293    649.35065    2.8886067 
  422000    7.6369412    649.35065    2.7458474 
  424000    8.1893874    649.35065    2.6843577 
  426000    7.6091602    649.35065    2.7361495 
  428000     7.620026    649.35065    2.7342183 
  430000    7.7347423    649.35065    2.7400298 
  432000    7.5068705    649.35065    2.7742279 
  434000    7.3736696    649.35065    2.7986864 
  436000    7.3641165    649.35065    2.7813917 
  438000    7.4881676    649.35065    2.7668877 
  440000    7.4928817    649.35065    2.7665475 
  442000     8.546272    649.35065     2.590218 
  444000    7.6160965    649.35065    2.7525654 
  446000    7.6916997    649.35065    2.7412814 
  448000    7.9814151    649.35065    2.7175987 
  450000    7.1015894    649.35065    2.8463923 
  452000    8.0675224    649.35065    2.6587343 
  454000    7.9072942    649.35065    2.6867444 
  456000    7.7993201    649.35065    2.7021122 
  458000    7.4410536    649.35065    2.8065766 
  460000    7.3572045    649.35065    2.8029504 
  462000    7.5264979    649.35065    2.7656352 
  464000    7.7815512    649.35065    2.7371202 
  466000    7.3030889    649.35065    2.8089723 
  468000     7.737483    649.35065    2.7288717 
  470000    7.4361319    649.35065    2.7693906 
  472000    6.9850811    649.35065    2.8532513 
  474000    7.8034195    649.35065     2.719741 
  476000    7.7727394    649.35065    2.6973877 
  478000    7.8379746    649.35065    2.6896271 
  480000    7.2746993    649.35065     2.814304 
  482000    7.5047575    649.35065     2.800952 
  484000    7.6765525    649.35065    2.7388175 
  486000    7.9334787    649.35065     2.716684 
  488000    7.5470982    649.35065    2.7425606 
  490000    7.4756575    649.35065    2.7585929 
  492000    7.7129515    649.35065    2.7082459 
  494000    7.9772671    649.35065    2.6722739 
  496000    7.7722976    649.35065    2.7112064 
  498000    7.8344091    649.35065    2.7006005 
  500000    7.4322255    649.35065    2.7856461 
Loop time of 166.222 on 1 procs for 500000 steps with 500 atoms

Performance: 1299466.837 tau/day, 3008.025 timesteps/s
92.6% CPU use with 1 MPI tasks x no OpenMP threads

MPI task timing breakdown:
Section |  min time  |  avg time  |  max time  |%varavg| %total
---------------------------------------------------------------
Pair    | 135.79     | 135.79     | 135.79     |   0.0 | 81.69
Neigh   | 19.175     | 19.175     | 19.175     |   0.0 | 11.54
Comm    | 5.706      | 5.706      | 5.706      |   0.0 |  3.43
Output  | 0.016644   | 0.016644   | 0.016644   |   0.0 |  0.01
Modify  | 4.489      | 4.489      | 4.489      |   0.0 |  2.70
Other   |            | 1.04       |            |       |  0.63

Nlocal:    500 ave 500 max 500 min
Histogram: 1 0 0 0 0 0 0 0 0 0
Nghost:    1761 ave 1761 max 1761 min
Histogram: 1 0 0 0 0 0 0 0 0 0
Neighs:    17358 ave 17358 max 17358 min
Histogram: 1 0 0 0 0 0 0 0 0 0

Total # of neighbors = 17358
Ave neighs/atom = 34.716
Neighbor list builds = 25000
Dangerous builds not checked
Total wall time: 0:02:46
