LAMMPS (19 Oct 2016)
# equation of state for LJ

variable temp equal 3
variable rho  equal 1.67

units lj
atom_style atomic

lattice    fcc ${rho}
lattice    fcc 1.67
Lattice spacing in x,y,z = 1.33797 1.33797 1.33797
region box block 0 5 0 5 0 5
create_box 1 box
Created orthogonal box = (0 0 0) to (6.68987 6.68987 6.68987)
  1 by 1 by 1 MPI processor grid
create_atoms 1 box
Created 500 atoms
mass       1 1.0

pair_style lj/cut 2.5
pair_coeff 1 1 1.0 1.0 2.5

velocity   all create ${temp} 87287
velocity   all create 3 87287

neighbor   0.3 bin
neigh_modify every 20 delay 0 check no

fix        1 all nvt temp ${temp} ${temp} 100
fix        1 all nvt temp 3 ${temp} 100
fix        1 all nvt temp 3 3 100
dump       1 all custom 70000 dump_t${temp}_r${rho}.lammpstrj id type x y z
dump       1 all custom 70000 dump_t3_r${rho}.lammpstrj id type x y z
dump       1 all custom 70000 dump_t3_r1.67.lammpstrj id type x y z
thermo     2000
thermo_style  custom step press vol temp
thermo_modify flush yes

run 500000
Neighbor list info ...
  1 neighbor list requests
  update every 20 steps, delay 0 steps, check no
  max neighbors/atom: 2000, page size: 100000
  master list distance cutoff = 2.8
  ghost atom cutoff = 2.8
  binsize = 1.4 -> bins = 5 5 5
Memory usage per processor = 3.36492 Mbytes
Step Press Volume Temp 
       0    189.22669     299.4012            3 
    2000    202.97423     299.4012    1.5105867 
    4000    203.04685     299.4012    1.5298035 
    6000    203.24614     299.4012    1.5493143 
    8000     203.4105     299.4012    1.5814636 
   10000    204.01474     299.4012    1.5583565 
   12000    203.89618     299.4012    1.6125775 
   14000    204.19976     299.4012    1.6226211 
   16000    204.14821     299.4012    1.6733848 
   18000    204.85854     299.4012    1.6450604 
   20000    205.23639     299.4012    1.6581578 
   22000     205.1955     299.4012    1.7196303 
   24000    205.47428     299.4012    1.7488886 
   26000    206.78905     299.4012    1.6735374 
   28000    206.80734     299.4012    1.7315057 
   30000    206.80679     299.4012     1.795827 
   32000    206.59204     299.4012    1.8827408 
   34000    206.91339     299.4012    1.9133693 
   36000    206.84509     299.4012    1.9890048 
   38000    207.33956     299.4012    2.0052144 
   40000    208.72226     299.4012      1.93077 
   42000    207.89236     299.4012    2.0887073 
   44000    208.51183     299.4012    2.0968448 
   46000    209.36347     299.4012    2.0821562 
   48000     209.2066     299.4012    2.1672879 
   50000    209.86402     299.4012    2.1794248 
   52000    210.99781     299.4012     2.134247 
   54000     210.7404     299.4012    2.2380663 
   56000    211.20918     299.4012    2.2663719 
   58000    211.60383     299.4012    2.2975602 
   60000    212.73403     299.4012    2.2644787 
   62000    213.31104     299.4012     2.280598 
   64000    213.12405     299.4012    2.3798713 
   66000    213.42437     299.4012    2.4284138 
   68000    213.99722     299.4012    2.4503771 
   70000    215.01272     299.4012    2.4171287 
   72000    214.99781     299.4012    2.5004278 
   74000    215.58048     299.4012    2.5241515 
   76000    214.78461     299.4012    2.6870748 
   78000    216.78903     299.4012    2.5520319 
   80000     218.0902     299.4012    2.4924151 
   82000    216.80339     299.4012    2.7022066 
   84000    218.12715     299.4012    2.6444194 
   86000    218.41141     299.4012    2.6888297 
   88000    218.30493     299.4012    2.7751474 
   90000     218.9009     299.4012    2.7802783 
   92000    220.09252     299.4012    2.7316449 
   94000    219.92804     299.4012    2.8163622 
   96000    220.95668     299.4012    2.7858292 
   98000    219.85003     299.4012    2.9620327 
  100000    220.41058     299.4012    2.9710158 
  102000    221.29256     299.4012    2.9417565 
  104000    219.88724     299.4012    3.1488293 
  106000    221.32936     299.4012     3.052577 
  108000    221.70474     299.4012    3.0713055 
  110000    221.99503     299.4012    3.0901549 
  112000    221.59051     299.4012    3.1797199 
  114000    222.41042     299.4012     3.146107 
  116000    222.39259     299.4012    3.1818016 
  118000    224.84991     299.4012    2.9646408 
  120000    223.03385     299.4012    3.1910475 
  122000    223.01412     299.4012    3.2246763 
  124000    221.40418     299.4012    3.4115088 
  126000    223.29969     299.4012    3.2318217 
  128000    223.18095     299.4012    3.2546344 
  130000    225.21731     299.4012    3.0559723 
  132000     222.7771     299.4012    3.3140688 
  134000    222.67612     299.4012    3.3242175 
  136000    223.48464     299.4012     3.230634 
  138000    224.01676     299.4012    3.1659291 
  140000    223.50911     299.4012    3.2092232 
  142000    223.03645     299.4012    3.2252867 
  144000    222.93848     299.4012    3.2118534 
  146000    222.70008     299.4012    3.2073693 
  148000     223.3973     299.4012    3.1086009 
  150000    222.02414     299.4012    3.2124378 
  152000    222.35964     299.4012    3.1396331 
  154000    220.94207     299.4012    3.2397642 
  156000    222.09549     299.4012    3.0803486 
  158000    221.89477     299.4012     3.060442 
  160000    221.58253     299.4012    3.0444319 
  162000    222.26286     299.4012    2.9326917 
  164000    219.71622     299.4012    3.1594482 
  166000    221.09037     299.4012      2.97331 
  168000    219.81298     299.4012    3.0749152 
  170000    219.62889     299.4012    3.0511467 
  172000    220.12208     299.4012    2.9637047 
  174000     219.3014     299.4012    3.0170729 
  176000    220.58812     299.4012    2.8532197 
  178000    219.86536     299.4012    2.9021129 
  180000    219.64406     299.4012     2.901493 
  182000    220.09729     299.4012    2.8324783 
  184000    218.93573     299.4012    2.9346836 
  186000    220.76567     299.4012    2.7286985 
  188000     219.1966     299.4012    2.8764028 
  190000    219.43347     299.4012    2.8436317 
  192000    219.26281     299.4012    2.8543884 
  194000    219.58793     299.4012    2.8177094 
  196000      218.514     299.4012     2.934454 
  198000    219.80558     299.4012    2.8040076 
  200000    218.72129     299.4012    2.9230369 
  202000    219.16739     299.4012    2.8872469 
  204000    218.87646     299.4012     2.930524 
  206000    218.98111     299.4012    2.9371931 
  208000    219.48657     299.4012    2.9030593 
  210000    218.58306     299.4012    3.0215098 
  212000    220.23322     299.4012    2.8723946 
  214000    221.14664     299.4012    2.8059675 
  216000    219.59395     299.4012     2.997001 
  218000    220.88751     299.4012    2.8953982 
  220000    219.87115     299.4012    3.0319361 
  222000    221.49305     299.4012    2.8941576 
  224000    221.78378     299.4012    2.8959312 
  226000    219.53055     299.4012     3.173836 
  228000    222.65975     299.4012    2.8713926 
  230000    222.35388     299.4012    2.9368759 
  232000    223.01465     299.4012    2.9014859 
  234000     221.7356     299.4012    3.0655771 
  236000    221.08481     299.4012    3.1602781 
  238000    221.52355     299.4012    3.1370059 
  240000    224.36194     299.4012    2.8659862 
  242000    221.77802     299.4012    3.1645155 
  244000    221.68788     299.4012    3.1912403 
  246000    222.60663     299.4012    3.1170087 
  248000     221.3887     299.4012    3.2510174 
  250000     223.1055     299.4012    3.0914827 
  252000    221.97116     299.4012    3.2157435 
  254000    223.32864     299.4012    3.0765029 
  256000    221.68625     299.4012    3.2509327 
  258000    222.72433     299.4012       3.1411 
  260000     223.4149     299.4012     3.066778 
  262000    223.33154     299.4012     3.077027 
  264000    222.44509     299.4012    3.1527988 
  266000    223.47691     299.4012    3.0288556 
  268000    221.70783     299.4012    3.2007953 
  270000    225.10413     299.4012    2.8259058 
  272000    223.29538     299.4012    2.9935905 
  274000    221.64083     299.4012    3.1432152 
  276000    222.34478     299.4012    3.0464159 
  278000    221.26087     299.4012    3.1263951 
  280000    223.12249     299.4012    2.9088958 
  282000    221.41464     299.4012    3.0560287 
  284000     221.7382     299.4012    2.9945998 
  286000    222.29654     299.4012    2.9061916 
  288000    220.67697     299.4012    3.0467832 
  290000    221.15809     299.4012    2.9683554 
  292000    220.85891     299.4012    2.9753824 
  294000    220.54105     299.4012    2.9793312 
  296000    220.02433     299.4012    3.0097305 
  298000    220.76919     299.4012    2.9106307 
  300000    220.30075     299.4012    2.9364834 
  302000    219.44157     299.4012    3.0044212 
  304000    220.87206     299.4012    2.8342146 
  306000    220.88621     299.4012    2.8178387 
  308000    220.28143     299.4012     2.872311 
  310000    218.74044     299.4012    3.0187908 
  312000    220.20047     299.4012    2.8553993 
  314000    220.17127     299.4012    2.8513035 
  316000    218.91566     299.4012    2.9793744 
  318000    220.55926     299.4012    2.8104077 
  320000    220.68857     299.4012    2.8001424 
  322000    220.17205     299.4012    2.8529123 
  324000    220.18892     299.4012    2.8529161 
  326000    219.37111     299.4012    2.9509104 
  328000    219.60547     299.4012    2.9318347 
  330000    221.09714     299.4012    2.7934382 
  332000     219.9465     299.4012    2.9257172 
  334000    218.60832     299.4012    3.0851143 
  336000    219.73495     299.4012    2.9930136 
  338000    221.04802     299.4012    2.8758473 
  340000    219.08661     299.4012    3.0973355 
  342000    221.38777     299.4012    2.8848762 
  344000    219.91698     299.4012    3.0639189 
  346000    220.50496     299.4012    3.0229397 
  348000    221.58941     299.4012    2.9380133 
  350000    222.13375     299.4012    2.9094222 
  352000    220.83344     299.4012    3.0729746 
  354000    220.66742     299.4012    3.1125411 
  356000    220.89561     299.4012    3.1151242 
  358000    222.73688     299.4012    2.9416183 
  360000    220.92822     299.4012     3.155175 
  362000    221.45692     299.4012    3.1178042 
  364000    222.19073     299.4012    3.0692241 
  366000    222.52365     299.4012    3.0527931 
  368000    221.31471     299.4012    3.1793677 
  370000    222.17034     299.4012    3.1098403 
  372000    221.03462     299.4012    3.2454919 
  374000    222.37478     299.4012    3.1044051 
  376000    222.37281     299.4012     3.112013 
  378000    221.90188     299.4012    3.1670667 
  380000    221.92263     299.4012    3.1595152 
  382000    221.33659     299.4012    3.2268782 
  384000     223.1155     299.4012     3.039025 
  386000    222.73017     299.4012    3.0747192 
  388000    221.99497     299.4012    3.1362718 
  390000     222.8828     299.4012    3.0383791 
  392000    221.56285     299.4012    3.1556874 
  394000    222.46161     299.4012    3.0465828 
  396000    222.49046     299.4012    3.0262647 
  398000    221.88361     299.4012    3.0674924 
  400000    222.53906     299.4012    2.9827392 
  402000    221.93666     299.4012    3.0251952 
  404000    221.58786     299.4012    3.0330313 
  406000    223.22974     299.4012    2.8420313 
  408000    221.61623     299.4012     2.973779 
  410000     221.2377     299.4012    2.9950356 
  412000    221.94259     299.4012    2.8990941 
  414000    220.50469     299.4012    3.0317895 
  416000    220.93357     299.4012     2.957049 
  418000    222.44691     299.4012     2.782166 
  420000    221.20588     299.4012    2.8905049 
  422000    220.73588     299.4012    2.9233805 
  424000    220.15179     299.4012    2.9663989 
  426000    221.04885     299.4012    2.8566545 
  428000    220.20091     299.4012    2.9315722 
  430000    219.64585     299.4012     2.980506 
  432000    220.98516     299.4012    2.8263799 
  434000    219.58287     299.4012    2.9646068 
  436000    218.96145     299.4012    3.0238259 
  438000    220.22352     299.4012    2.8861314 
  440000    219.96291     299.4012    2.9133482 
  442000    220.79914     299.4012     2.823105 
  444000    220.21556     299.4012    2.8894482 
  446000    219.39597     299.4012    2.9797027 
  448000    218.57573     299.4012     3.070926 
  450000    220.14524     299.4012    2.9149169 
  452000    221.16787     299.4012    2.8229481 
  454000    220.34711     299.4012    2.9176072 
  456000    220.05158     299.4012    2.9681701 
  458000    219.84325     299.4012    3.0017036 
  460000    221.72953     299.4012     2.823612 
  462000    221.19786     299.4012    2.9059295 
  464000    220.70513     299.4012    2.9768966 
  466000    221.41068     299.4012    2.9296675 
  468000    220.78038     299.4012    3.0123071 
  470000    221.15131     299.4012    3.0004223 
  472000    220.99522     299.4012    3.0436651 
  474000    220.72998     299.4012    3.0919491 
  476000    220.13528     299.4012    3.1727301 
  478000    220.84082     299.4012    3.1292516 
  480000    222.70279     299.4012    2.9493468 
  482000    221.12124     299.4012    3.1310081 
  484000    222.36663     299.4012    3.0203876 
  486000    222.07445     299.4012    3.0648201 
  488000    221.79449     299.4012    3.1121622 
  490000     221.5165     299.4012    3.1438235 
  492000    220.27984     299.4012    3.2824944 
  494000    222.27862     299.4012    3.0875185 
  496000    221.83234     299.4012    3.1380145 
  498000    222.54011     299.4012     3.068912 
  500000    222.00179     299.4012    3.1191473 
Loop time of 327.441 on 1 procs for 500000 steps with 500 atoms

Performance: 659660.754 tau/day, 1526.992 timesteps/s
92.0% CPU use with 1 MPI tasks x no OpenMP threads

MPI task timing breakdown:
Section |  min time  |  avg time  |  max time  |%varavg| %total
---------------------------------------------------------------
Pair    | 270.64     | 270.64     | 270.64     |   0.0 | 82.65
Neigh   | 40.233     | 40.233     | 40.233     |   0.0 | 12.29
Comm    | 9.7444     | 9.7444     | 9.7444     |   0.0 |  2.98
Output  | 0.04683    | 0.04683    | 0.04683    |   0.0 |  0.01
Modify  | 5.0187     | 5.0187     | 5.0187     |   0.0 |  1.53
Other   |            | 1.76       |            |       |  0.54

Nlocal:    500 ave 500 max 500 min
Histogram: 1 0 0 0 0 0 0 0 0 0
Nghost:    2926 ave 2926 max 2926 min
Histogram: 1 0 0 0 0 0 0 0 0 0
Neighs:    37061 ave 37061 max 37061 min
Histogram: 1 0 0 0 0 0 0 0 0 0

Total # of neighbors = 37061
Ave neighs/atom = 74.122
Neighbor list builds = 25000
Dangerous builds not checked
Total wall time: 0:05:27
