LAMMPS (19 Oct 2016)
# equation of state for LJ

variable temp equal 3
variable rho  equal 1.25

units lj
atom_style atomic

lattice    fcc ${rho}
lattice    fcc 1.25
Lattice spacing in x,y,z = 1.47361 1.47361 1.47361
region box block 0 5 0 5 0 5
create_box 1 box
Created orthogonal box = (0 0 0) to (7.36806 7.36806 7.36806)
  1 by 1 by 1 MPI processor grid
create_atoms 1 box
Created 500 atoms
mass       1 1.0

pair_style lj/cut 2.5
pair_coeff 1 1 1.0 1.0 2.5

velocity   all create ${temp} 87287
velocity   all create 3 87287

neighbor   0.3 bin
neigh_modify every 20 delay 0 check no

fix        1 all nvt temp ${temp} ${temp} 100
fix        1 all nvt temp 3 ${temp} 100
fix        1 all nvt temp 3 3 100
dump       1 all custom 70000 dump_t${temp}_r${rho}.lammpstrj id type x y z
dump       1 all custom 70000 dump_t3_r${rho}.lammpstrj id type x y z
dump       1 all custom 70000 dump_t3_r1.25.lammpstrj id type x y z
thermo     2000
thermo_style  custom step press vol temp
thermo_modify flush yes

run 500000
Neighbor list info ...
  1 neighbor list requests
  update every 20 steps, delay 0 steps, check no
  max neighbors/atom: 2000, page size: 100000
  master list distance cutoff = 2.8
  ghost atom cutoff = 2.8
  binsize = 1.4 -> bins = 6 6 6
Memory usage per processor = 3.32155 Mbytes
Step Press Volume Temp 
       0    23.025756          400            3 
    2000    33.549161          400    1.6428279 
    4000    33.902439          400     1.625824 
    6000    34.972442          400    1.5198977 
    8000    34.637184          400    1.6141444 
   10000    35.199877          400    1.5806946 
   12000    35.237506          400    1.6148645 
   14000    35.407566          400    1.6286939 
   16000    35.088291          400    1.7194268 
   18000     35.05267          400    1.7727154 
   20000    35.895352          400     1.709725 
   22000    36.328419          400     1.714143 
   24000    36.032347          400    1.8099913 
   26000    37.134392          400    1.7237945 
   28000    36.938793          400     1.811362 
   30000    37.340349          400    1.8194295 
   32000    36.866487          400    1.9396915 
   34000    37.706825          400    1.8921258 
   36000    38.239303          400    1.8957951 
   38000    37.926655          400    2.0042426 
   40000    38.249907          400    2.0233169 
   42000     38.60744          400    2.0444949 
   44000    38.697773          400    2.1012593 
   46000    38.646992          400    2.1751551 
   48000    39.573049          400    2.1268923 
   50000    39.334569          400    2.2309371 
   52000    39.982169          400    2.2207182 
   54000    40.560951          400    2.2168015 
   56000    41.630097          400    2.1498179 
   58000    40.817664          400    2.3235618 
   60000    41.351988          400     2.332748 
   62000    41.596243          400    2.3699236 
   64000    41.486768          400     2.460474 
   66000    41.903306          400    2.4694407 
   68000    42.284051          400    2.4925657 
   70000     41.94939          400    2.6072901 
   72000    42.707119          400    2.5838828 
   74000    44.024356          400    2.4752327 
   76000    43.667422          400    2.5951798 
   78000    43.599299          400    2.6716734 
   80000    44.270373          400    2.6553823 
   82000    44.513184          400     2.687618 
   84000    44.641493          400    2.7424047 
   86000    44.132272          400    2.8719999 
   88000    45.128168          400    2.8007268 
   90000    45.880793          400    2.7688463 
   92000     45.77834          400    2.8398112 
   94000    44.582789          400    3.0573412 
   96000    45.733009          400    2.9546383 
   98000     47.31797          400    2.7992653 
  100000    46.048313          400    3.0225634 
  102000     46.54679          400    3.0105424 
  104000    48.597365          400    2.7872341 
  106000    46.766131          400    3.0677932 
  108000     47.98582          400    2.9568526 
  110000    48.333907          400    2.9467174 
  112000    48.362481          400    2.9812763 
  114000    46.893016          400    3.2120369 
  116000    47.759419          400    3.1165443 
  118000    48.188821          400    3.0972488 
  120000    47.907487          400    3.1567102 
  122000     48.69714          400    3.0712084 
  124000    47.350596          400    3.2642667 
  126000    48.030184          400    3.1920925 
  128000    48.610128          400    3.1327843 
  130000    48.796571          400     3.113099 
  132000    49.105558          400    3.0703995 
  134000    48.896279          400    3.0956133 
  136000    47.992877          400    3.2143593 
  138000    48.617287          400    3.1345284 
  140000    49.268458          400    3.0398258 
  142000    48.347977          400    3.1532753 
  144000    48.381234          400     3.125137 
  146000    48.443732          400    3.0994494 
  148000    48.492834          400     3.079201 
  150000     47.14532          400    3.2290845 
  152000    48.080749          400    3.0711647 
  154000    47.830775          400    3.0861686 
  156000    47.296948          400    3.1231194 
  158000     47.80242          400    3.0223089 
  160000    47.349735          400    3.0577433 
  162000    47.380271          400    3.0291138 
  164000    48.075781          400    2.9015425 
  166000     46.91535          400    3.0234298 
  168000    48.119809          400     2.842282 
  170000    47.163288          400    2.9316796 
  172000    46.358925          400    3.0119382 
  174000    47.217224          400    2.8673711 
  176000    46.255324          400    2.9673826 
  178000    46.761712          400    2.8838161 
  180000    46.200815          400    2.9489374 
  182000    47.105866          400    2.8088572 
  184000    45.653537          400    2.9808645 
  186000    46.572579          400    2.8451399 
  188000    45.010167          400    3.0406625 
  190000    46.519606          400    2.8303232 
  192000    46.154153          400    2.8851674 
  194000    46.190065          400     2.873316 
  196000    46.301075          400    2.8588536 
  198000    46.071044          400    2.9026875 
  200000    46.064663          400    2.9064146 
  202000    46.261392          400    2.8890895 
  204000    47.886017          400    2.6854769 
  206000     46.36556          400    2.8986744 
  208000     47.23103          400    2.7968814 
  210000    45.640672          400    3.0316553 
  212000    47.126238          400    2.8535979 
  214000    45.971829          400    3.0378796 
  216000    47.603739          400    2.8353692 
  218000      47.1664          400    2.9092104 
  220000    47.067331          400    2.9502949 
  222000    46.030044          400    3.1127703 
  224000     47.51949          400    2.9382724 
  226000    46.515017          400    3.0916886 
  228000    47.727017          400    2.9605847 
  230000    47.219949          400    3.0457644 
  232000    47.183629          400    3.0713058 
  234000    47.648832          400    3.0274639 
  236000    47.903041          400     3.005161 
  238000    47.253078          400    3.1190955 
  240000    47.723591          400     3.068993 
  242000    48.210336          400    3.0069236 
  244000    48.554802          400    2.9862603 
  246000    49.043816          400    2.9337559 
  248000    48.574509          400    2.9884405 
  250000    48.241761          400    3.0392212 
  252000    47.381695          400    3.1764748 
  254000    47.550156          400    3.1449029 
  256000    47.080279          400    3.2140095 
  258000    47.892189          400    3.1013983 
  260000    48.754619          400    2.9847941 
  262000    48.213607          400    3.0488135 
  264000    48.397529          400     3.022798 
  266000    48.591357          400     2.982189 
  268000    47.795833          400    3.0826941 
  270000    48.845019          400    2.9358728 
  272000    48.133389          400     3.013084 
  274000    47.847552          400    3.0271693 
  276000    47.704205          400    3.0456656 
  278000    46.736396          400     3.154854 
  280000    47.684985          400    3.0102172 
  282000    47.574248          400    3.0125618 
  284000    48.545721          400     2.869361 
  286000    47.765859          400    2.9510042 
  288000    47.752149          400    2.9373939 
  290000    45.661455          400    3.2016061 
  292000    47.125714          400    2.9838422 
  294000    46.809508          400    3.0016729 
  296000    46.474373          400    3.0429514 
  298000    47.683525          400    2.8588531 
  300000    46.443065          400    3.0086851 
  302000    46.351279          400    3.0217567 
  304000    46.797587          400    2.9463683 
  306000    46.767036          400    2.9416881 
  308000    45.920829          400    3.0467018 
  310000    47.128125          400    2.8711957 
  312000     46.40791          400    2.9687801 
  314000    47.039085          400    2.8951365 
  316000    46.921364          400    2.8900303 
  318000    45.823699          400    3.0443933 
  320000    46.733653          400    2.9285894 
  322000    47.330207          400    2.8482173 
  324000    46.205864          400    3.0010222 
  326000    46.987953          400    2.9096195 
  328000    46.796962          400    2.9363285 
  330000    46.952072          400    2.9283281 
  332000    46.431795          400    3.0104442 
  334000    46.835712          400    2.9763181 
  336000    47.433696          400    2.9099463 
  338000    46.734502          400     3.005996 
  340000    46.385997          400    3.0690882 
  342000    46.517825          400    3.0639717 
  344000    46.215075          400    3.1206415 
  346000     47.29143          400    2.9941049 
  348000    48.872982          400    2.7946051 
  350000     47.10115          400    3.0455085 
  352000    47.196539          400    3.0322452 
  354000    46.517876          400    3.1413541 
  356000    47.914271          400    2.9697687 
  358000    46.582556          400    3.1654862 
  360000    47.730633          400    3.0189355 
  362000    47.821096          400    2.9971036 
  364000    48.492067          400    2.9341243 
  366000    47.862456          400    3.0173085 
  368000    47.356928          400    3.0913096 
  370000    48.152848          400    2.9951209 
  372000    48.928127          400    2.8848732 
  374000    48.345407          400    2.9717864 
  376000    47.955641          400    3.0203174 
  378000    47.928089          400    3.0352442 
  380000    48.025659          400    3.0058006 
  382000    47.403442          400    3.0997879 
  384000    47.647898          400    3.0635965 
  386000    47.741146          400     3.044053 
  388000     47.32143          400    3.0987386 
  390000    47.062252          400    3.1342467 
  392000     47.73182          400    3.0258257 
  394000    47.373104          400    3.0598079 
  396000    47.138469          400    3.0865705 
  398000    48.737278          400    2.8663006 
  400000    47.293272          400    3.0479458 
  402000    47.443215          400    3.0215295 
  404000    47.348873          400    3.0239986 
  406000    47.498757          400    2.9961642 
  408000    46.738136          400    3.0932821 
  410000    47.782258          400    2.9408047 
  412000    47.288442          400     3.000927 
  414000    47.179383          400    2.9866892 
  416000    47.796317          400    2.9075075 
  418000    46.123425          400    3.1263185 
  420000    46.795136          400    3.0308985 
  422000    45.966984          400    3.1265881 
  424000    47.642543          400    2.9098326 
  426000    46.453074          400    3.0487194 
  428000    47.292102          400    2.9385232 
  430000     46.82783          400    2.9952169 
  432000    46.356629          400    3.0439124 
  434000    46.718029          400    3.0072779 
  436000    46.941885          400     2.974486 
  438000    46.595852          400     3.017389 
  440000     46.52219          400    3.0354538 
  442000    47.114941          400     2.955481 
  444000    47.380538          400    2.9273076 
  446000    47.154228          400    2.9594455 
  448000    46.617865          400    3.0392155 
  450000    47.400312          400    2.9417473 
  452000    46.357796          400    3.0872648 
  454000    47.096901          400    2.9961776 
  456000    47.996271          400    2.8895912 
  458000    47.312013          400     2.997077 
  460000    47.042871          400    3.0395765 
  462000    46.858204          400    3.0665903 
  464000     47.52574          400    2.9849682 
  466000    48.497119          400     2.870554 
  468000    47.355637          400    3.0236336 
  470000    47.381053          400    3.0340305 
  472000    48.427981          400    2.8954762 
  474000    48.503582          400    2.8949116 
  476000    47.942681          400    2.9679553 
  478000    47.554894          400    3.0263867 
  480000    47.511754          400    3.0363057 
  482000    47.371057          400     3.054373 
  484000    48.346799          400     2.920247 
  486000    47.261462          400    3.0760649 
  488000    47.797228          400    3.0031853 
  490000    47.904691          400     2.985821 
  492000    47.238328          400    3.0736301 
  494000    48.686336          400    2.8846421 
  496000    48.735803          400    2.8792898 
  498000    47.733336          400    3.0057241 
  500000    47.216011          400    3.0689276 
Loop time of 254.404 on 1 procs for 500000 steps with 500 atoms

Performance: 849041.946 tau/day, 1965.375 timesteps/s
95.2% CPU use with 1 MPI tasks x no OpenMP threads

MPI task timing breakdown:
Section |  min time  |  avg time  |  max time  |%varavg| %total
---------------------------------------------------------------
Pair    | 216.05     | 216.05     | 216.05     |   0.0 | 84.92
Neigh   | 26.937     | 26.937     | 26.937     |   nan | 10.59
Comm    | 5.9108     | 5.9108     | 5.9108     |   0.0 |  2.32
Output  | 0.023563   | 0.023563   | 0.023563   |   0.0 |  0.01
Modify  | 4.357      | 4.357      | 4.357      |   0.0 |  1.71
Other   |            | 1.13       |            |       |  0.44

Nlocal:    500 ave 500 max 500 min
Histogram: 1 0 0 0 0 0 0 0 0 0
Nghost:    1972 ave 1972 max 1972 min
Histogram: 1 0 0 0 0 0 0 0 0 0
Neighs:    29439 ave 29439 max 29439 min
Histogram: 1 0 0 0 0 0 0 0 0 0

Total # of neighbors = 29439
Ave neighs/atom = 58.878
Neighbor list builds = 25000
Dangerous builds not checked
Total wall time: 0:04:14
