LAMMPS (19 Oct 2016)
# equation of state for LJ

variable temp equal 3
variable rho  equal 1.43

units lj
atom_style atomic

lattice    fcc ${rho}
lattice    fcc 1.43
Lattice spacing in x,y,z = 1.40899 1.40899 1.40899
region box block 0 5 0 5 0 5
create_box 1 box
Created orthogonal box = (0 0 0) to (7.04495 7.04495 7.04495)
  1 by 1 by 1 MPI processor grid
create_atoms 1 box
Created 500 atoms
mass       1 1.0

pair_style lj/cut 2.5
pair_coeff 1 1 1.0 1.0 2.5

velocity   all create ${temp} 87287
velocity   all create 3 87287

neighbor   0.3 bin
neigh_modify every 20 delay 0 check no

fix        1 all nvt temp ${temp} ${temp} 100
fix        1 all nvt temp 3 ${temp} 100
fix        1 all nvt temp 3 3 100
dump       1 all custom 70000 dump_t${temp}_r${rho}.lammpstrj id type x y z
dump       1 all custom 70000 dump_t3_r${rho}.lammpstrj id type x y z
dump       1 all custom 70000 dump_t3_r1.43.lammpstrj id type x y z
thermo     2000
thermo_style  custom step press vol temp
thermo_modify flush yes

run 500000
Neighbor list info ...
  1 neighbor list requests
  update every 20 steps, delay 0 steps, check no
  max neighbors/atom: 2000, page size: 100000
  master list distance cutoff = 2.8
  ghost atom cutoff = 2.8
  binsize = 1.4 -> bins = 6 6 6
Memory usage per processor = 3.32155 Mbytes
Step Press Volume Temp 
       0    67.162911    349.65035            3 
    2000    79.868262    349.65035    1.5033791 
    4000    80.325374    349.65035    1.4778268 
    6000    80.080282    349.65035    1.5425948 
    8000    80.006152    349.65035    1.5975502 
   10000    80.139531    349.65035    1.6274573 
   12000    80.617827    349.65035    1.6078123 
   14000    80.353335    349.65035    1.6796166 
   16000    80.777486    349.65035    1.6760398 
   18000    80.918412    349.65035    1.7060462 
   20000    81.914756    349.65035     1.638126 
   22000    81.409622    349.65035    1.7577984 
   24000    81.735303    349.65035    1.7778718 
   26000    82.387708    349.65035    1.7552908 
   28000    82.900327    349.65035    1.7584461 
   30000    82.826154    349.65035    1.8320231 
   32000     83.05458    349.65035     1.864696 
   34000    83.596391    349.65035    1.8707473 
   36000    82.947611    349.65035    2.0073718 
   38000    84.028261    349.65035     1.949872 
   40000    84.300848    349.65035     1.983901 
   42000    84.787554    349.65035    1.9961181 
   44000    84.860686    349.65035    2.0620537 
   46000    85.564608    349.65035    2.0508996 
   48000    85.361756    349.65035    2.1445722 
   50000    86.139202    349.65035    2.1258911 
   52000    86.016708    349.65035    2.2184143 
   54000     86.31948    349.65035    2.2551575 
   56000    86.174344    349.65035    2.3476383 
   58000    87.583765    349.65035    2.2559239 
   60000    88.010811    349.65035    2.2790818 
   62000    87.860758    349.65035     2.371622 
   64000    88.066882    349.65035    2.4264244 
   66000    89.399377    349.65035    2.3435599 
   68000    89.160159    349.65035    2.4450281 
   70000    88.081798    349.65035    2.6530967 
   72000    90.611436    349.65035    2.4295332 
   74000    90.031876    349.65035    2.5766291 
   76000    89.908155    349.65035    2.6676377 
   78000    91.489503    349.65035    2.5527481 
   80000    91.081186    349.65035    2.6722407 
   82000    92.126404    349.65035    2.6209552 
   84000    91.527841    349.65035    2.7644932 
   86000    92.102437    349.65035    2.7651289 
   88000    93.439752    349.65035    2.6795184 
   90000     93.36686    349.65035    2.7528495 
   92000    93.541451    349.65035    2.7980064 
   94000    93.576845    349.65035    2.8671617 
   96000    93.559165    349.65035    2.9254093 
   98000    94.063552    349.65035    2.9258842 
  100000    94.231147    349.65035     2.966067 
  102000    94.510938    349.65035    2.9887106 
  104000    95.174788    349.65035    2.9652571 
  106000    93.323595    349.65035    3.2386978 
  108000    95.308101    349.65035    3.0527894 
  110000    95.181534    349.65035    3.1096847 
  112000    94.777556    349.65035    3.1984858 
  114000    95.550628    349.65035     3.147071 
  116000    95.705376    349.65035    3.1694262 
  118000     96.79117    349.65035    3.0708042 
  120000    96.011772    349.65035    3.1910695 
  122000    96.211817    349.65035    3.1906304 
  124000    96.641756    349.65035    3.1567421 
  126000    96.201349    349.65035    3.2290032 
  128000    96.404936    349.65035    3.2134838 
  130000    97.553554    349.65035    3.0819814 
  132000    96.436655    349.65035    3.2204585 
  134000    97.674937    349.65035    3.0703864 
  136000    97.067671    349.65035    3.1361774 
  138000    96.537171    349.65035    3.1918567 
  140000    97.139212    349.65035    3.1044617 
  142000    95.842253    349.65035    3.2455529 
  144000    96.898682    349.65035    3.0925212 
  146000    95.368047    349.65035    3.2482872 
  148000    96.086728    349.65035    3.1433367 
  150000    95.948325    349.65035    3.1147435 
  152000    95.217008    349.65035    3.1720756 
  154000     96.60311    349.65035    2.9686001 
  156000    94.245403    349.65035    3.2100695 
  158000    95.160308    349.65035    3.0680429 
  160000    96.526673    349.65035    2.8600334 
  162000    95.143383    349.65035    2.9900667 
  164000    94.591869    349.65035    3.0230759 
  166000     94.72945    349.65035    2.9678255 
  168000    95.746845    349.65035    2.8072162 
  170000    94.244118    349.65035    2.9612089 
  172000      93.5266    349.65035    3.0172779 
  174000    93.682753    349.65035    2.9677504 
  176000    94.596624    349.65035    2.8237121 
  178000    94.042599    349.65035    2.8657189 
  180000    93.742545    349.65035    2.8741855 
  182000    93.419648    349.65035    2.8935453 
  184000    93.577577    349.65035    2.8572082 
  186000    93.843396    349.65035    2.8154759 
  188000    93.404479    349.65035    2.8557425 
  190000    92.918534    349.65035    2.9095383 
  192000    94.782235    349.65035    2.6831704 
  194000    93.170844    349.65035    2.8720934 
  196000    92.653161    349.65035    2.9404531 
  198000    92.996267    349.65035    2.9074384 
  200000    93.458123    349.65035    2.8516968 
  202000    93.131656    349.65035    2.9061441 
  204000    94.001071    349.65035    2.8245444 
  206000    94.295117    349.65035    2.7989845 
  208000    94.388895    349.65035    2.8156252 
  210000    93.123685    349.65035    2.9921125 
  212000    93.972476    349.65035    2.9107841 
  214000    94.275002    349.65035    2.9134435 
  216000    94.473658    349.65035    2.9076134 
  218000    94.396692    349.65035     2.947806 
  220000    95.695469    349.65035    2.8167991 
  222000    93.849608    349.65035    3.0721399 
  224000     94.16905    349.65035    3.0685873 
  226000    95.896092    349.65035    2.8872394 
  228000    96.209111    349.65035    2.8815911 
  230000     95.05837    349.65035    3.0480188 
  232000    95.245874    349.65035    3.0500961 
  234000    95.335217    349.65035    3.0652355 
  236000     96.29734    349.65035    2.9737036 
  238000    94.537008    349.65035    3.2022235 
  240000    95.331052    349.65035    3.1317049 
  242000    95.759437    349.65035    3.0923514 
  244000    95.422741    349.65035    3.1536016 
  246000    96.895712    349.65035    2.9897063 
  248000    96.478994    349.65035    3.0498439 
  250000    96.461628    349.65035     3.059695 
  252000    96.611759    349.65035    3.0462347 
  254000    96.904928    349.65035    3.0105299 
  256000    95.719994    349.65035    3.1596196 
  258000    96.854368    349.65035    3.0138065 
  260000    96.999534    349.65035    2.9928853 
  262000    96.598672    349.65035    3.0382015 
  264000    96.562551    349.65035    3.0336892 
  266000    95.699104    349.65035    3.1188368 
  268000    95.234229    349.65035    3.1637958 
  270000    95.654276    349.65035     3.090125 
  272000    95.982091    349.65035    3.0308997 
  274000    94.711822    349.65035    3.1679498 
  276000    94.904418    349.65035    3.1126612 
  278000    96.039064    349.65035    2.9600388 
  280000     95.38599    349.65035    3.0185079 
  282000    94.303378    349.65035      3.11333 
  284000    95.302794    349.65035    2.9756183 
  286000    95.151757    349.65035     2.969154 
  288000    94.365672    349.65035    3.0319898 
  290000    94.385252    349.65035    3.0082159 
  292000    95.760596    349.65035    2.8169635 
  294000    93.956912    349.65035    3.0088861 
  296000     94.08024    349.65035    2.9788987 
  298000    94.354097    349.65035     2.924435 
  300000    94.020447    349.65035    2.9390289 
  302000    93.651111    349.65035    2.9700792 
  304000    93.787355    349.65035     2.936451 
  306000    94.014127    349.65035    2.8956412 
  308000    94.130424    349.65035    2.8785261 
  310000    95.044711    349.65035    2.7534626 
  312000    93.176334    349.65035     2.972584 
  314000    94.041151    349.65035    2.8618484 
  316000    93.498087    349.65035    2.9285566 
  318000    94.954564    349.65035    2.7523179 
  320000    92.022793    349.65035    3.1134824 
  322000    93.983682    349.65035    2.8806295 
  324000    93.207409    349.65035    2.9857823 
  326000    92.725403    349.65035    3.0504772 
  328000     93.95628    349.65035    2.9108936 
  330000    94.102762    349.65035    2.9075107 
  332000    93.694302    349.65035    2.9799716 
  334000    94.452843    349.65035    2.9051648 
  336000    94.876495    349.65035    2.8757686 
  338000    93.279129    349.65035    3.0807347 
  340000    95.491378    349.65035    2.8418014 
  342000     94.34303    349.65035    3.0061632 
  344000     94.47419    349.65035    3.0100647 
  346000     95.13182    349.65035     2.958141 
  348000    94.855729    349.65035    3.0060481 
  350000     94.90214    349.65035    3.0216581 
  352000    95.105831    349.65035    3.0271728 
  354000    96.647356    349.65035    2.8549971 
  356000    96.244734    349.65035    2.9188645 
  358000    95.442524    349.65035    3.0392678 
  360000    95.769419    349.65035    3.0149369 
  362000    95.288924    349.65035    3.0872845 
  364000    95.708742    349.65035    3.0545493 
  366000    96.004171    349.65035    3.0262299 
  368000    96.268848    349.65035    3.0084839 
  370000    95.751789    349.65035     3.077105 
  372000     95.67032    349.65035    3.0967283 
  374000    94.949012    349.65035    3.1766505 
  376000    95.984535    349.65035    3.0608878 
  378000    96.031883    349.65035     3.056888 
  380000    94.750755    349.65035     3.202528 
  382000    95.611762    349.65035    3.1047031 
  384000    95.707834    349.65035    3.0859231 
  386000    96.187622    349.65035    3.0222413 
  388000    96.175331    349.65035    3.0147571 
  390000    95.395537    349.65035    3.0949456 
  392000    95.125276    349.65035    3.1169223 
  394000    95.504845    349.65035    3.0622537 
  396000    96.149611    349.65035    2.9648052 
  398000     95.62514    349.65035    3.0052765 
  400000     95.39275    349.65035    3.0171971 
  402000    94.801094    349.65035    3.0651213 
  404000    95.546096    349.65035    2.9629871 
  406000    95.119736    349.65035    2.9933993 
  408000    94.523791    349.65035    3.0458334 
  410000    95.041017    349.65035    2.9648558 
  412000    95.768743    349.65035    2.8495414 
  414000    94.610119    349.65035    2.9780908 
  416000    94.883095    349.65035    2.9227165 
  418000    94.845046    349.65035    2.9053063 
  420000    93.373771    349.65035    3.0653364 
  422000    94.453689    349.65035     2.924673 
  424000     93.45853    349.65035    3.0238086 
  426000    93.035862    349.65035    3.0622184 
  428000    93.858352    349.65035    2.9523321 
  430000    93.388394    349.65035    3.0034996 
  432000    93.384966    349.65035    2.9921688 
  434000     94.41975    349.65035    2.8598669 
  436000    94.104965    349.65035    2.8942407 
  438000    93.990448    349.65035    2.9048535 
  440000    93.437017    349.65035    2.9681763 
  442000    94.699442    349.65035    2.8210234 
  444000    93.960588    349.65035    2.9135193 
  446000    93.520073    349.65035    2.9816391 
  448000    93.656705    349.65035    2.9678589 
  450000    93.754905    349.65035    2.9633722 
  452000    94.194264    349.65035    2.9340032 
  454000    95.030721    349.65035    2.8467631 
  456000    93.426991    349.65035    3.0535575 
  458000    93.453944    349.65035     3.067539 
  460000    94.919811    349.65035    2.9112153 
  462000    94.430494    349.65035    2.9946801 
  464000    95.139807    349.65035    2.9250679 
  466000    94.247975    349.65035    3.0600741 
  468000    94.908852    349.65035    2.9924401 
  470000    95.608368    349.65035    2.9309786 
  472000    95.257622    349.65035    2.9909544 
  474000    95.085486    349.65035    3.0306439 
  476000    94.989671    349.65035    3.0613308 
  478000    95.335028    349.65035    3.0261811 
  480000    95.694037    349.65035    3.0003379 
  482000    94.994785    349.65035    3.0808212 
  484000    94.974531    349.65035    3.0988512 
  486000    94.341895    349.65035    3.1901358 
  488000    95.978155    349.65035    2.9949821 
  490000    96.564176    349.65035    2.9325821 
  492000     95.41998    349.65035    3.0680458 
  494000    94.418874    349.65035    3.1906918 
  496000    96.210651    349.65035    2.9709213 
  498000    95.219207    349.65035    3.0912088 
  500000    95.715706    349.65035    3.0342595 
Loop time of 314.712 on 1 procs for 500000 steps with 500 atoms

Performance: 686341.921 tau/day, 1588.754 timesteps/s
89.4% CPU use with 1 MPI tasks x no OpenMP threads

MPI task timing breakdown:
Section |  min time  |  avg time  |  max time  |%varavg| %total
---------------------------------------------------------------
Pair    | 268.7      | 268.7      | 268.7      |   0.0 | 85.38
Neigh   | 31.626     | 31.626     | 31.626     |   nan | 10.05
Comm    | 7.8525     | 7.8525     | 7.8525     |   0.0 |  2.50
Output  | 0.030338   | 0.030338   | 0.030338   |   0.0 |  0.01
Modify  | 5.0639     | 5.0639     | 5.0639     |   0.0 |  1.61
Other   |            | 1.442      |            |       |  0.46

Nlocal:    500 ave 500 max 500 min
Histogram: 1 0 0 0 0 0 0 0 0 0
Nghost:    2258 ave 2258 max 2258 min
Histogram: 1 0 0 0 0 0 0 0 0 0
Neighs:    33944 ave 33944 max 33944 min
Histogram: 1 0 0 0 0 0 0 0 0 0

Total # of neighbors = 33944
Ave neighs/atom = 67.888
Neighbor list builds = 25000
Dangerous builds not checked
Total wall time: 0:05:14
