LAMMPS (19 Oct 2016)
# equation of state for LJ

variable temp equal 3
variable rho  equal 1.0

units lj
atom_style atomic

lattice    fcc ${rho}
lattice    fcc 1
Lattice spacing in x,y,z = 1.5874 1.5874 1.5874
region box block 0 5 0 5 0 5
create_box 1 box
Created orthogonal box = (0 0 0) to (7.93701 7.93701 7.93701)
  1 by 1 by 1 MPI processor grid
create_atoms 1 box
Created 500 atoms
mass       1 1.0

pair_style lj/cut 2.5
pair_coeff 1 1 1.0 1.0 2.5

velocity   all create ${temp} 87287
velocity   all create 3 87287

neighbor   0.3 bin
neigh_modify every 20 delay 0 check no

fix        1 all nvt temp ${temp} ${temp} 100
fix        1 all nvt temp 3 ${temp} 100
fix        1 all nvt temp 3 3 100
dump       1 all custom 70000 dump_t${temp}_r${rho}.lammpstrj id type x y z
dump       1 all custom 70000 dump_t3_r${rho}.lammpstrj id type x y z
dump       1 all custom 70000 dump_t3_r1.lammpstrj id type x y z
thermo     2000
thermo_style  custom step press vol temp
thermo_modify flush yes

run 500000
Neighbor list info ...
  1 neighbor list requests
  update every 20 steps, delay 0 steps, check no
  max neighbors/atom: 2000, page size: 100000
  master list distance cutoff = 2.8
  ghost atom cutoff = 2.8
  binsize = 1.4 -> bins = 6 6 6
Memory usage per processor = 3.32155 Mbytes
Step Press Volume Temp 
       0  -0.39957478          500            3 
    2000    9.7339458          500    1.5523409 
    4000     9.525787          500    1.6008348 
    6000    9.8785327          500    1.5910182 
    8000    9.7317184          500    1.6494567 
   10000    9.8283468          500    1.6658855 
   12000    9.4645799          500    1.7578663 
   14000    9.8068255          500    1.7285082 
   16000    10.496997          500    1.6728981 
   18000    10.758798          500    1.6700599 
   20000     10.69973          500    1.7200318 
   22000    11.069178          500    1.7172537 
   24000    10.957312          500    1.7838452 
   26000    11.601758          500    1.7364839 
   28000    12.964254          500    1.5981829 
   30000    13.504212          500    1.5836599 
   32000     13.32754          500    1.6505879 
   34000    13.516404          500    1.6675169 
   36000    14.151929          500    1.6380969 
   38000      14.3277          500    1.6497309 
   40000    14.188046          500    1.7431259 
   42000    14.898392          500    1.6798536 
   44000    14.618595          500     1.795202 
   46000    14.923679          500    1.7981955 
   48000    14.819317          500    1.8753409 
   50000    15.968915          500    1.7633309 
   52000    15.128188          500    1.9582571 
   54000    15.907784          500    1.8836189 
   56000     15.94096          500    1.9285677 
   58000    15.585685          500    2.0618058 
   60000    15.995924          500    2.0772042 
   62000    16.110778          500     2.097376 
   64000    16.825469          500    2.0594527 
   66000     16.74417          500     2.134045 
   68000    16.667561          500    2.2124777 
   70000    17.179775          500    2.1943675 
   72000    17.321455          500     2.234994 
   74000    18.004719          500    2.1900934 
   76000    18.256625          500    2.2202602 
   78000    18.260876          500    2.2878795 
   80000    18.353563          500    2.3241142 
   82000    17.654382          500    2.5014269 
   84000    19.262076          500    2.3249582 
   86000    18.843036          500    2.4229834 
   88000    19.314758          500    2.4298833 
   90000    20.623616          500    2.2830495 
   92000     19.69135          500    2.4845878 
   94000    19.673803          500    2.5233613 
   96000    19.724652          500    2.5890906 
   98000    20.509766          500    2.5061823 
  100000    18.931754          500    2.7900189 
  102000    20.466629          500    2.6074078 
  104000    20.175975          500    2.7298955 
  106000    20.720782          500    2.6669878 
  108000    20.810249          500    2.7014993 
  110000    21.350729          500    2.6667607 
  112000    21.359226          500     2.697734 
  114000    20.197336          500    2.9248426 
  116000    20.900429          500    2.8363233 
  118000    22.020136          500    2.7223683 
  120000    21.165592          500    2.8751708 
  122000    21.738912          500    2.8238738 
  124000    21.319101          500    2.9040232 
  126000    21.721122          500    2.8902136 
  128000    22.830669          500    2.7237094 
  130000     21.95669          500     2.894802 
  132000    22.362322          500    2.8474606 
  134000    22.109648          500    2.9014124 
  136000    22.175365          500     2.919089 
  138000    22.392168          500    2.8909912 
  140000    22.263413          500    2.9163326 
  142000    22.116597          500    2.9685828 
  144000    22.058341          500     3.005536 
  146000    22.265111          500    2.9690608 
  148000    22.672888          500    2.9102102 
  150000    23.057577          500    2.8692407 
  152000    23.142449          500    2.8695542 
  154000    23.162554          500    2.8619991 
  156000    21.909759          500    3.0711204 
  158000    22.155548          500    3.0238389 
  160000    21.705718          500    3.0894652 
  162000     22.93316          500    2.8953654 
  164000    21.563021          500    3.1233482 
  166000    21.924972          500    3.0515637 
  168000    23.021618          500    2.9016785 
  170000    22.992245          500    2.9005769 
  172000    22.809551          500    2.9108507 
  174000     22.38258          500    2.9928272 
  176000    22.534602          500    2.9677361 
  178000     22.45535          500    2.9756614 
  180000     22.61191          500    2.9490684 
  182000    22.969206          500    2.8902365 
  184000    22.749559          500    2.9128503 
  186000    22.667366          500     2.922548 
  188000    22.364268          500    2.9824913 
  190000    22.091102          500    3.0046133 
  192000    21.876262          500    3.0476363 
  194000    22.562617          500    2.9253924 
  196000    21.950916          500    3.0199868 
  198000     22.32524          500    2.9615244 
  200000    22.136099          500    2.9963603 
  202000    21.878106          500    3.0150179 
  204000    20.904858          500    3.1480182 
  206000    22.680454          500    2.8991512 
  208000    22.782018          500    2.8506087 
  210000    22.495741          500    2.9222879 
  212000    22.575247          500    2.9064204 
  214000    21.993922          500    2.9804472 
  216000    21.871808          500    2.9947888 
  218000    22.134256          500    2.9728401 
  220000    21.781689          500    3.0197621 
  222000    22.591129          500    2.8898882 
  224000    22.046472          500    2.9638347 
  226000    22.768461          500    2.8586907 
  228000    22.032491          500    2.9813044 
  230000    22.583463          500    2.9063014 
  232000    22.652677          500    2.8628465 
  234000     22.04235          500    2.9737037 
  236000     22.23021          500    2.9405494 
  238000    22.155286          500    2.9533234 
  240000    22.162431          500    2.9521837 
  242000    22.131375          500    2.9642938 
  244000    22.971812          500    2.8229694 
  246000    21.799769          500    3.0014418 
  248000    22.157033          500    2.9658623 
  250000    22.549291          500    2.8881246 
  252000    22.674607          500    2.8673796 
  254000    21.973565          500    2.9711977 
  256000     22.00203          500    2.9698336 
  258000    22.073998          500    2.9820416 
  260000    21.542279          500    3.0433582 
  262000    22.064868          500    2.9876055 
  264000    22.261366          500    2.9372013 
  266000    21.559277          500    3.0537672 
  268000      22.1227          500     2.969849 
  270000     22.15439          500    2.9717527 
  272000    21.642931          500    3.0379075 
  274000    22.245397          500    2.9344025 
  276000    22.359257          500    2.9443738 
  278000    21.747501          500    3.0359902 
  280000    22.283393          500    2.9388696 
  282000    21.897624          500    3.0130555 
  284000    22.940264          500    2.8384162 
  286000    22.205971          500    2.9548109 
  288000    22.643883          500     2.887515 
  290000    22.543993          500    2.8876604 
  292000    21.992027          500    2.9596587 
  294000    22.683837          500    2.8664674 
  296000     22.58536          500    2.8942132 
  298000    22.037784          500    2.9595967 
  300000    21.920448          500    2.9848226 
  302000    22.615686          500    2.8652014 
  304000    22.074029          500    2.9724582 
  306000    22.087525          500    2.9669601 
  308000    22.776337          500    2.8551728 
  310000    21.484885          500    3.0356163 
  312000    22.576663          500    2.8863615 
  314000    22.004996          500    2.9739305 
  316000     22.70745          500    2.8620777 
  318000    22.527998          500    2.8899937 
  320000    22.505211          500    2.8967173 
  322000     22.86876          500    2.8212554 
  324000    22.460343          500     2.886295 
  326000    22.158707          500    2.9392732 
  328000    21.978229          500    2.9755386 
  330000    22.032414          500    2.9350205 
  332000    22.426118          500    2.8930547 
  334000    22.183847          500     2.920208 
  336000    22.541912          500    2.8652214 
  338000    22.153916          500    2.9466567 
  340000    21.810968          500    2.9703128 
  342000    22.651383          500    2.8461374 
  344000    21.966037          500    2.9631265 
  346000    22.121989          500    2.9270407 
  348000     21.61222          500    3.0150352 
  350000    21.300582          500    3.0627696 
  352000     22.06893          500    2.9580783 
  354000    21.974125          500    2.9462596 
  356000    22.373717          500    2.9066725 
  358000    21.550263          500    3.0193537 
  360000    21.844753          500    2.9760404 
  362000    22.304309          500    2.9088673 
  364000    22.954118          500    2.7969822 
  366000    22.118098          500    2.9343899 
  368000    22.195232          500    2.9099773 
  370000    22.263761          500    2.9199596 
  372000    22.246159          500    2.8966222 
  374000     22.32197          500    2.8962751 
  376000    21.775075          500    2.9751646 
  378000    22.231353          500    2.9192943 
  380000    22.166315          500    2.9191581 
  382000    22.022005          500    2.9380525 
  384000    22.151913          500    2.9275255 
  386000    21.578623          500    2.9919634 
  388000    22.490522          500    2.8656311 
  390000    21.945512          500    2.9375319 
  392000    21.442903          500    3.0363223 
  394000    21.852454          500    2.9398641 
  396000     22.10235          500    2.9105595 
  398000    21.980327          500    2.9256631 
  400000    21.462668          500    3.0132972 
  402000    22.523797          500    2.8453347 
  404000    22.110673          500    2.9180528 
  406000    21.504739          500    3.0116065 
  408000    21.689027          500    2.9744602 
  410000    22.020922          500    2.9278683 
  412000    21.535811          500    3.0007762 
  414000    21.294251          500    3.0569611 
  416000    22.021166          500    2.9186225 
  418000    21.504887          500    3.0200408 
  420000     22.34463          500    2.8823711 
  422000    23.117945          500    2.7567066 
  424000    21.848905          500    2.9496472 
  426000     21.97671          500     2.926216 
  428000    23.228068          500    2.7482502 
  430000    21.839114          500    2.9244371 
  432000     21.59223          500    2.9748511 
  434000    21.725976          500    2.9777657 
  436000    22.208417          500    2.8770175 
  438000    22.156854          500    2.8705131 
  440000    22.511053          500     2.830585 
  442000    22.193598          500    2.8977358 
  444000     21.74295          500    2.9489075 
  446000    21.937999          500    2.9251794 
  448000    22.253466          500    2.8849778 
  450000     20.89628          500    3.0777339 
  452000     22.13231          500    2.8726177 
  454000    22.301403          500    2.8588074 
  456000    21.992718          500     2.909732 
  458000    22.306253          500    2.8600979 
  460000    22.312974          500    2.8578453 
  462000    22.473803          500    2.8436859 
  464000    22.357749          500     2.853589 
  466000    21.330939          500    3.0115605 
  468000    21.158866          500    3.0335723 
  470000    21.768077          500    2.9399846 
  472000    22.019187          500    2.8894114 
  474000    21.999443          500    2.9029998 
  476000    22.446763          500    2.8070794 
  478000     22.38469          500    2.8347592 
  480000    22.058473          500    2.9017174 
  482000    21.279205          500    3.0055443 
  484000    22.055711          500     2.872347 
  486000    22.626789          500    2.7890639 
  488000    21.667667          500     2.955755 
  490000     22.05935          500    2.8770607 
  492000    22.000434          500    2.8825112 
  494000    22.654527          500    2.7847432 
  496000    22.862884          500    2.7446776 
  498000    22.269769          500    2.8244204 
  500000     21.87123          500    2.8987618 
Loop time of 194.923 on 1 procs for 500000 steps with 500 atoms

Performance: 1108130.991 tau/day, 2565.118 timesteps/s
96.9% CPU use with 1 MPI tasks x no OpenMP threads

MPI task timing breakdown:
Section |  min time  |  avg time  |  max time  |%varavg| %total
---------------------------------------------------------------
Pair    | 159.65     | 159.65     | 159.65     |   0.0 | 81.91
Neigh   | 24.299     | 24.299     | 24.299     |   nan | 12.47
Comm    | 5.8515     | 5.8515     | 5.8515     |   0.0 |  3.00
Output  | 0.0276     | 0.0276     | 0.0276     |   0.0 |  0.01
Modify  | 4.0726     | 4.0726     | 4.0726     |   0.0 |  2.09
Other   |            | 1.02       |            |       |  0.52

Nlocal:    500 ave 500 max 500 min
Histogram: 1 0 0 0 0 0 0 0 0 0
Nghost:    1995 ave 1995 max 1995 min
Histogram: 1 0 0 0 0 0 0 0 0 0
Neighs:    22711 ave 22711 max 22711 min
Histogram: 1 0 0 0 0 0 0 0 0 0

Total # of neighbors = 22711
Ave neighs/atom = 45.422
Neighbor list builds = 25000
Dangerous builds not checked
Total wall time: 0:03:14
