LAMMPS (19 Oct 2016)
# equation of state for LJ

variable temp equal 3
variable rho  equal 1.11

units lj
atom_style atomic

lattice    fcc ${rho}
lattice    fcc 1.11
Lattice spacing in x,y,z = 1.53313 1.53313 1.53313
region box block 0 5 0 5 0 5
create_box 1 box
Created orthogonal box = (0 0 0) to (7.66565 7.66565 7.66565)
  1 by 1 by 1 MPI processor grid
create_atoms 1 box
Created 500 atoms
mass       1 1.0

pair_style lj/cut 2.5
pair_coeff 1 1 1.0 1.0 2.5

velocity   all create ${temp} 87287
velocity   all create 3 87287

neighbor   0.3 bin
neigh_modify every 20 delay 0 check no

fix        1 all nvt temp ${temp} ${temp} 100
fix        1 all nvt temp 3 ${temp} 100
fix        1 all nvt temp 3 3 100
dump       1 all custom 70000 dump_t${temp}_r${rho}.lammpstrj id type x y z
dump       1 all custom 70000 dump_t3_r${rho}.lammpstrj id type x y z
dump       1 all custom 70000 dump_t3_r1.11.lammpstrj id type x y z
thermo     2000
thermo_style  custom step press vol temp
thermo_modify flush yes

run 500000
Neighbor list info ...
  1 neighbor list requests
  update every 20 steps, delay 0 steps, check no
  max neighbors/atom: 2000, page size: 100000
  master list distance cutoff = 2.8
  ghost atom cutoff = 2.8
  binsize = 1.4 -> bins = 6 6 6
Memory usage per processor = 3.32155 Mbytes
Step Press Volume Temp 
       0    5.8627179    450.45045            3 
    2000    16.187982    450.45045    1.6095017 
    4000    16.551475    450.45045    1.5841633 
    6000    17.034816    450.45045    1.5519818 
    8000    16.509484    450.45045    1.6672479 
   10000    17.210233    450.45045    1.6138926 
   12000    16.610181    450.45045    1.7359036 
   14000    17.196214    450.45045    1.6892113 
   16000    18.008725    450.45045    1.6191762 
   18000    17.305234    450.45045    1.7560243 
   20000     17.15134    450.45045    1.8287945 
   22000    17.947335    450.45045    1.7694891 
   24000    17.960775    450.45045    1.8299544 
   26000    17.833069    450.45045     1.893963 
   28000    19.128559    450.45045    1.7696712 
   30000    18.327148    450.45045    1.9303587 
   32000    18.736562    450.45045    1.9379531 
   34000    19.543666    450.45045    1.8859976 
   36000    19.571754    450.45045    1.9463494 
   38000    19.232098    450.45045    2.0546094 
   40000    20.226332    450.45045    1.9685008 
   42000    20.385504    450.45045    2.0086243 
   44000    20.625548    450.45045    2.0389954 
   46000    20.995461    450.45045    2.0539275 
   48000    21.240983    450.45045    2.0864219 
   50000    21.233528    450.45045    2.1463709 
   52000    21.415232    450.45045     2.186952 
   54000    22.229345    450.45045    2.1414413 
   56000    22.109411    450.45045     2.218154 
   58000    22.532027    450.45045    2.2264069 
   60000    21.845614    450.45045    2.3859593 
   62000    22.795515    450.45045    2.3160508 
   64000    23.005643    450.45045    2.3560528 
   66000    22.930967    450.45045    2.4256095 
   68000    22.296557    450.45045    2.5866984 
   70000     23.74754    450.45045    2.4314331 
   72000    23.485002    450.45045     2.535389 
   74000    24.193971    450.45045    2.5008363 
   76000    23.783337    450.45045    2.6153725 
   78000    25.103115    450.45045    2.4855947 
   80000    24.931995    450.45045    2.5843633 
   82000    25.071877    450.45045    2.6096158 
   84000    26.262844    450.45045    2.4929454 
   86000    26.051305    450.45045    2.5803691 
   88000    24.932963    450.45045    2.7986937 
   90000    26.452803    450.45045    2.6173649 
   92000    26.346837    450.45045    2.6918121 
   94000    26.036033    450.45045    2.7927446 
   96000    27.201026    450.45045    2.6710963 
   98000    26.954937    450.45045    2.7610584 
  100000    26.268474    450.45045    2.8949498 
  102000    26.943496    450.45045     2.844522 
  104000    27.128773    450.45045    2.8517078 
  106000    27.033368    450.45045    2.9109835 
  108000    27.470351    450.45045    2.8764311 
  110000    27.461026    450.45045    2.9198559 
  112000    28.398332    450.45045    2.8214523 
  114000    28.618166    450.45045    2.8314589 
  116000    27.966951    450.45045    2.9481917 
  118000    28.221698    450.45045    2.9334078 
  120000    28.778449    450.45045     2.887614 
  122000    28.426759    450.45045    2.9620065 
  124000    28.734132    450.45045    2.9555267 
  126000    27.502688    450.45045     3.149085 
  128000     28.83892    450.45045     2.971181 
  130000    30.386525    450.45045    2.7836651 
  132000    32.148009    450.45045    2.5615164 
  134000    31.697554    450.45045    2.6659662 
  136000    32.377894    450.45045    2.5859776 
  138000    32.439829    450.45045    2.6362354 
  140000    32.381747    450.45045    2.6780309 
  142000    32.609343    450.45045    2.6881391 
  144000    32.427348    450.45045    2.7591913 
  146000    32.278159    450.45045    2.8251679 
  148000    33.696681    450.45045    2.6379957 
  150000     34.17339    450.45045    2.6383448 
  152000    33.496945    450.45045    2.7668014 
  154000    32.886086    450.45045    2.9110139 
  156000    33.963522    450.45045    2.7909083 
  158000    34.710336    450.45045    2.7222567 
  160000    33.784681    450.45045    2.8829557 
  162000    34.719807    450.45045    2.7904531 
  164000    34.660775    450.45045    2.8360231 
  166000    34.405224    450.45045    2.9174065 
  168000    35.420212    450.45045    2.7798944 
  170000    34.613478    450.45045    2.9096783 
  172000     34.68918    450.45045    2.9499205 
  174000    35.339918    450.45045    2.8821626 
  176000    34.028725    450.45045    3.0793464 
  178000    33.567681    450.45045    3.1854418 
  180000    35.078963    450.45045    2.9954907 
  182000    34.860016    450.45045    3.0322949 
  184000    35.093949    450.45045    3.0142935 
  186000    34.633086    450.45045    3.1031878 
  188000    35.564997    450.45045    2.9789449 
  190000    34.913226    450.45045     3.077033 
  192000    35.515067    450.45045    3.0028997 
  194000    35.760385    450.45045    2.9718202 
  196000    35.323339    450.45045    3.0442261 
  198000    34.867568    450.45045    3.1066255 
  200000    35.802343    450.45045    2.9820769 
  202000    36.192053    450.45045    2.9379102 
  204000    35.762974    450.45045     3.002662 
  206000    36.211946    450.45045    2.9268015 
  208000    36.363149    450.45045    2.9109357 
  210000    34.409339    450.45045    3.2051765 
  212000    36.185572    450.45045     2.919557 
  214000    34.803228    450.45045    3.1232761 
  216000    34.953498    450.45045    3.0913096 
  218000    35.601422    450.45045    3.0145829 
  220000    35.627783    450.45045    2.9947449 
  222000    36.232793    450.45045    2.9076495 
  224000      35.8245    450.45045    2.9532576 
  226000    34.493643    450.45045    3.1511588 
  228000    35.235654    450.45045    3.0389415 
  230000    35.607797    450.45045    2.9724298 
  232000    35.668078    450.45045    2.9714787 
  234000    35.220679    450.45045    3.0022049 
  236000    34.640346    450.45045    3.0907038 
  238000    34.915578    450.45045    3.0354846 
  240000    34.155356    450.45045    3.1430819 
  242000    35.214168    450.45045    2.9782602 
  244000    35.347879    450.45045    2.9586743 
  246000    35.315031    450.45045    2.9532651 
  248000     34.76622    450.45045    3.0279472 
  250000    35.575264    450.45045    2.9180069 
  252000    34.290983    450.45045     3.092609 
  254000     35.23304    450.45045    2.9811785 
  256000    35.027477    450.45045    2.9905445 
  258000    34.758691    450.45045    3.0124919 
  260000    34.757982    450.45045    3.0139833 
  262000     35.24719    450.45045    2.9509044 
  264000     36.49095    450.45045    2.7680658 
  266000    34.651493    450.45045     3.024649 
  268000    35.060781    450.45045    2.9676423 
  270000    34.861281    450.45045    2.9890775 
  272000    34.730385    450.45045    3.0037514 
  274000     34.96227    450.45045    2.9933575 
  276000    35.113405    450.45045    2.9466963 
  278000    34.929176    450.45045    2.9737647 
  280000    35.189766    450.45045    2.9591026 
  282000    35.462972    450.45045    2.9120205 
  284000    35.776248    450.45045    2.8720467 
  286000    35.726463    450.45045    2.8654026 
  288000    34.414349    450.45045    3.0603877 
  290000    35.214883    450.45045    2.9520791 
  292000    34.680324    450.45045    3.0274673 
  294000     35.04329    450.45045    2.9788503 
  296000    35.684209    450.45045      2.90548 
  298000     35.33019    450.45045    2.9396833 
  300000    34.586058    450.45045    3.0417983 
  302000    34.724047    450.45045    3.0511333 
  304000    35.453404    450.45045    2.9219061 
  306000    36.373042    450.45045    2.8027717 
  308000    35.781626    450.45045    2.8930458 
  310000    33.507255    450.45045    3.2252392 
  312000     35.16461    450.45045    2.9759995 
  314000    34.428945    450.45045    3.0934246 
  316000    35.371967    450.45045    2.9501267 
  318000    35.194694    450.45045    2.9699664 
  320000    35.534925    450.45045    2.9446636 
  322000    34.532154    450.45045    3.0647257 
  324000    34.745421    450.45045    3.0390023 
  326000    35.931091    450.45045    2.8753474 
  328000    35.238722    450.45045    2.9723975 
  330000    36.334494    450.45045    2.8118864 
  332000    34.728998    450.45045    3.0317202 
  334000     35.51012    450.45045     2.920276 
  336000    35.661167    450.45045    2.9141884 
  338000    35.640325    450.45045    2.9090109 
  340000    36.440819    450.45045    2.7790161 
  342000    34.401934    450.45045    3.0901105 
  344000     34.93023    450.45045    3.0004465 
  346000    35.386491    450.45045    2.9470579 
  348000    34.318313    450.45045    3.0968627 
  350000    34.690496    450.45045    3.0333948 
  352000    34.934999    450.45045    3.0071181 
  354000    35.072509    450.45045    2.9807992 
  356000    35.334495    450.45045    2.9420071 
  358000    35.022195    450.45045    2.9818189 
  360000     35.47041    450.45045    2.9173029 
  362000    35.271806    450.45045     2.939153 
  364000    35.459864    450.45045    2.9192488 
  366000    34.655306    450.45045    3.0394586 
  368000    35.154956    450.45045    2.9712788 
  370000    34.979054    450.45045    2.9944372 
  372000     35.68861    450.45045    2.8794979 
  374000    35.526929    450.45045    2.9092101 
  376000    34.544571    450.45045    3.0406235 
  378000    34.715511    450.45045    3.0230639 
  380000    35.317929    450.45045    2.9251774 
  382000    34.922678    450.45045     2.981615 
  384000    35.037934    450.45045    2.9731087 
  386000    35.008608    450.45045     2.982676 
  388000    35.512376    450.45045    2.8983428 
  390000    35.212666    450.45045    2.9312415 
  392000    35.345147    450.45045    2.9296118 
  394000    36.017546    450.45045    2.8351488 
  396000    36.187689    450.45045    2.7790865 
  398000    35.308948    450.45045    2.9266812 
  400000    34.613741    450.45045    3.0371657 
  402000    35.683088    450.45045    2.8683125 
  404000    34.568035    450.45045    3.0202685 
  406000     35.39444    450.45045    2.8868386 
  408000    34.804995    450.45045    2.9948162 
  410000    35.118154    450.45045    2.9359607 
  412000    33.676863    450.45045    3.1670858 
  414000    35.283087    450.45045    2.9280094 
  416000    35.279434    450.45045    2.9177077 
  418000    35.256629    450.45045    2.9355467 
  420000    34.721243    450.45045    3.0093272 
  422000    35.554284    450.45045    2.8799142 
  424000    35.031396    450.45045    2.9626337 
  426000    34.517423    450.45045    3.0373567 
  428000    34.748568    450.45045    3.0112439 
  430000    34.632442    450.45045    2.9973101 
  432000    34.941049    450.45045    2.9587608 
  434000    34.958455    450.45045    2.9784516 
  436000    35.363264    450.45045    2.9030406 
  438000    34.670868    450.45045     3.004421 
  440000    35.125821    450.45045    2.9259302 
  442000    34.899068    450.45045    2.9741214 
  444000     34.68608    450.45045    2.9894301 
  446000    35.489183    450.45045    2.8820964 
  448000    35.201291    450.45045     2.915141 
  450000    34.688595    450.45045    3.0038322 
  452000    35.246721    450.45045    2.9003541 
  454000    34.028678    450.45045    3.0755237 
  456000    35.263267    450.45045    2.8907264 
  458000    34.874725    450.45045    2.9651855 
  460000    35.757683    450.45045     2.821065 
  462000    34.425351    450.45045    3.0155454 
  464000    34.938644    450.45045    2.9497129 
  466000    34.057279    450.45045     3.079452 
  468000    35.488784    450.45045     2.852581 
  470000    34.571967    450.45045    3.0046257 
  472000    34.885702    450.45045    2.9498352 
  474000    34.548178    450.45045    2.9907663 
  476000    34.542194    450.45045     2.996905 
  478000    35.217045    450.45045    2.8969642 
  480000    34.095642    450.45045    3.0540424 
  482000     34.67158    450.45045     2.954517 
  484000    34.822046    450.45045    2.9351595 
  486000    34.672377    450.45045    2.9507386 
  488000    34.307781    450.45045    2.9986085 
  490000    35.622861    450.45045    2.8304856 
  492000    35.611973    450.45045     2.810526 
  494000    35.009923    450.45045    2.9072547 
  496000    34.755525    450.45045    2.9407487 
  498000    34.409578    450.45045    2.9839948 
  500000    34.428734    450.45045    2.9752618 
Loop time of 215.959 on 1 procs for 500000 steps with 500 atoms

Performance: 1000189.480 tau/day, 2315.253 timesteps/s
97.3% CPU use with 1 MPI tasks x no OpenMP threads

MPI task timing breakdown:
Section |  min time  |  avg time  |  max time  |%varavg| %total
---------------------------------------------------------------
Pair    | 179.79     | 179.79     | 179.79     |   0.0 | 83.25
Neigh   | 25.102     | 25.102     | 25.102     |   0.0 | 11.62
Comm    | 5.8684     | 5.8684     | 5.8684     |   0.0 |  2.72
Output  | 0.023985   | 0.023985   | 0.023985   |   0.0 |  0.01
Modify  | 4.0645     | 4.0645     | 4.0645     |   0.0 |  1.88
Other   |            | 1.108      |            |       |  0.51

Nlocal:    500 ave 500 max 500 min
Histogram: 1 0 0 0 0 0 0 0 0 0
Nghost:    2100 ave 2100 max 2100 min
Histogram: 1 0 0 0 0 0 0 0 0 0
Neighs:    25396 ave 25396 max 25396 min
Histogram: 1 0 0 0 0 0 0 0 0 0

Total # of neighbors = 25396
Ave neighs/atom = 50.792
Neighbor list builds = 25000
Dangerous builds not checked
Total wall time: 0:03:35
