LAMMPS (19 Oct 2016)
# equation of state for LJ

variable temp equal 3
variable rho  equal 2.0

units lj
atom_style atomic

lattice    fcc ${rho}
lattice    fcc 2
Lattice spacing in x,y,z = 1.25992 1.25992 1.25992
region box block 0 5 0 5 0 5
create_box 1 box
Created orthogonal box = (0 0 0) to (6.29961 6.29961 6.29961)
  1 by 1 by 1 MPI processor grid
create_atoms 1 box
Created 500 atoms
mass       1 1.0

pair_style lj/cut 2.5
pair_coeff 1 1 1.0 1.0 2.5

velocity   all create ${temp} 87287
velocity   all create 3 87287

neighbor   0.3 bin
neigh_modify every 20 delay 0 check no

fix        1 all nvt temp ${temp} ${temp} 100
fix        1 all nvt temp 3 ${temp} 100
fix        1 all nvt temp 3 3 100
dump       1 all custom 70000 dump_t${temp}_r${rho}.lammpstrj id type x y z
dump       1 all custom 70000 dump_t3_r${rho}.lammpstrj id type x y z
dump       1 all custom 70000 dump_t3_r2.lammpstrj id type x y z
thermo     2000
thermo_style  custom step press vol temp
thermo_modify flush yes

run 500000
Neighbor list info ...
  1 neighbor list requests
  update every 20 steps, delay 0 steps, check no
  max neighbors/atom: 2000, page size: 100000
  master list distance cutoff = 2.8
  ghost atom cutoff = 2.8
  binsize = 1.4 -> bins = 5 5 5
Memory usage per processor = 3.36492 Mbytes
Step Press Volume Temp 
       0      555.292          250            3 
    2000    572.16215          250    1.5430448 
    4000    572.10281          250    1.5778069 
    6000    573.18847          250    1.5254736 
    8000    573.98841          250    1.4975961 
   10000    573.52389          250    1.5842607 
   12000    574.46972          250    1.5379109 
   14000    573.92077          250    1.6261756 
   16000    574.40251          250    1.6323516 
   18000    574.60425          250    1.6644477 
   20000    574.40247          250    1.7336568 
   22000    575.72611          250    1.6764368 
   24000    576.13762          250    1.6950045 
   26000    577.18178          250    1.6705331 
   28000    576.08169          250    1.8228571 
   30000    577.31087          250    1.7844873 
   32000    577.72347          250    1.8122077 
   34000    578.34128          250    1.8300777 
   36000    577.66128          250    1.9460659 
   38000    579.01729          250    1.8958915 
   40000    579.50228          250    1.9304546 
   42000     580.7469          250    1.8955503 
   44000    579.95373          250    2.0335575 
   46000    580.30192          250     2.071831 
   48000     580.8511          250     2.102962 
   50000    582.02251          250    2.0711303 
   52000    581.58761          250    2.1879668 
   54000    582.65496          250    2.1806365 
   56000    583.22442          250    2.1957079 
   58000    583.55395          250    2.2473476 
   60000    583.92134          250    2.2954472 
   62000    585.10585          250    2.2755359 
   64000    585.21402          250    2.3411767 
   66000    585.89839          250    2.3581078 
   68000    586.82152          250    2.3617107 
   70000    586.05607          250    2.5089134 
   72000      586.571          250    2.5407802 
   74000    587.56484          250    2.5381327 
   76000    588.80427          250    2.5158829 
   78000    589.10749          250    2.5601758 
   80000    589.23494          250     2.634178 
   82000    590.27327          250     2.619388 
   84000    591.20652          250    2.6167068 
   86000    591.88697          250    2.6343066 
   88000    591.90163          250    2.7034851 
   90000    592.10979          250      2.76576 
   92000    592.38293          250    2.8182515 
   94000    593.38369          250    2.8021101 
   96000    593.43988          250    2.8620458 
   98000    595.75953          250     2.735295 
  100000    593.57023          250     2.992187 
  102000    594.07229          250    3.0118756 
  104000    593.90355          250    3.0869658 
  106000     594.8537          250    3.0636252 
  108000    596.37093          250    2.9813046 
  110000    595.32029          250    3.1409792 
  112000    595.05791          250     3.210291 
  114000    597.45555          250     3.040714 
  116000    596.33594          250    3.1901755 
  118000    595.42662          250    3.3131053 
  120000    597.54301          250    3.1626946 
  122000    597.89509          250    3.1578869 
  124000    598.36854          250    3.1589876 
  126000    598.48176          250    3.1631021 
  128000    597.15651          250    3.2974151 
  130000    597.39018          250    3.2949289 
  132000    597.79154          250    3.2687773 
  134000    601.16657          250    2.9816418 
  136000     597.9898          250    3.2542336 
  138000    599.49932          250    3.1232257 
  140000    597.23046          250    3.3027815 
  142000    597.50515          250    3.2643212 
  144000    598.01015          250    3.1927039 
  146000    597.34582          250    3.2198214 
  148000    596.81063          250    3.2457393 
  150000    599.23695          250    2.9993155 
  152000    598.45623          250    3.0300385 
  154000     596.3865          250    3.1681187 
  156000    596.01208          250    3.1655338 
  158000    595.84281          250    3.1332077 
  160000    597.13553          250    2.9922199 
  162000    594.63765          250    3.1581275 
  164000    595.18096          250    3.0549436 
  166000    596.05861          250    2.9500401 
  168000    593.74201          250    3.1041186 
  170000    596.55977          250    2.8220768 
  172000    596.57704          250    2.7883947 
  174000    594.28961          250    2.9408978 
  176000    593.40647          250     2.982127 
  178000    592.66331          250     3.024218 
  180000    593.35562          250    2.9376747 
  182000    594.80971          250    2.7826262 
  184000    593.34684          250    2.8913519 
  186000    593.88226          250    2.8303188 
  188000    592.47251          250    2.9295015 
  190000    592.09095          250    2.9488797 
  192000    594.41472          250    2.7367912 
  194000    593.27268          250    2.8268957 
  196000    592.81588          250    2.8672894 
  198000    593.14084          250    2.8338661 
  200000     592.9121          250    2.8526784 
  202000    592.84459          250    2.8705605 
  204000    593.27599          250    2.8442709 
  206000    593.07619          250    2.8784684 
  208000    593.51644          250     2.844776 
  210000    593.64085          250    2.8562791 
  212000    592.76643          250    2.9559945 
  214000    594.19995          250    2.8561605 
  216000    593.28451          250    2.9585861 
  218000    595.11275          250      2.83272 
  220000    592.64582          250     3.075478 
  222000    593.57008          250    3.0286739 
  224000    595.18708          250    2.9208869 
  226000    595.51296          250    2.9307057 
  228000    595.44016          250    2.9757608 
  230000    596.04317          250     2.953539 
  232000    594.33424          250    3.1352629 
  234000    596.62914          250    2.9599651 
  236000    595.85191          250    3.0609103 
  238000    595.61814          250    3.1127398 
  240000     597.5309          250     2.970761 
  242000    596.95926          250     3.054871 
  244000     595.9948          250    3.1508542 
  246000    598.01048          250    3.0071654 
  248000    597.40734          250    3.0840835 
  250000    600.05854          250    2.8669358 
  252000    598.62846          250    2.9992175 
  254000     597.2437          250    3.1352676 
  256000    598.16022          250     3.056875 
  258000    597.30984          250    3.1301242 
  260000    596.49872          250    3.2028007 
  262000    597.22914          250    3.1380589 
  264000    597.92086          250    3.0650968 
  266000    597.32533          250    3.1131195 
  268000    598.86443          250    2.9772732 
  270000    597.28424          250    3.0984599 
  272000    599.12499          250    2.9181733 
  274000      596.667          250    3.1006139 
  276000    596.29153          250     3.119219 
  278000    597.87281          250    2.9487511 
  280000    596.99602          250    3.0117209 
  282000    594.63389          250    3.1816283 
  284000    596.11885          250    3.0229427 
  286000    596.48458          250    2.9719969 
  288000    597.15163          250    2.8807971 
  290000    596.96386          250    2.8632151 
  292000    594.86204          250    3.0242458 
  294000    594.60982          250    3.0188879 
  296000    595.27999          250    2.9291756 
  298000    593.80506          250    3.0285237 
  300000    594.37227          250     2.949797 
  302000    594.73919          250    2.8966667 
  304000    594.35303          250     2.917856 
  306000    592.81416          250    3.0258604 
  308000    593.14299          250    2.9874773 
  310000    593.74721          250    2.9206507 
  312000    594.88367          250    2.8121567 
  314000    593.29125          250    2.9321584 
  316000    594.64738          250    2.8072415 
  318000    593.46286          250    2.9092101 
  320000    593.53094          250    2.8918374 
  322000    593.78474          250    2.8699416 
  324000    593.89927          250    2.8576439 
  326000    592.87708          250    2.9478248 
  328000    594.73318          250    2.7997946 
  330000    595.20524          250    2.7710399 
  332000    592.25969          250    3.0332582 
  334000    593.53676          250    2.9393593 
  336000    594.17156          250    2.9020612 
  338000    593.84426          250    2.9401164 
  340000    592.74746          250    3.0610821 
  342000    593.16712          250     3.043928 
  344000    594.93628          250    2.9214935 
  346000    594.56775          250    2.9723335 
  348000    596.56669          250     2.825628 
  350000    594.76631          250    3.0122256 
  352000    595.17775          250    2.9935947 
  354000    595.64491          250    2.9907294 
  356000    596.67743          250    2.9229593 
  358000    595.02107          250    3.0827717 
  360000    595.78363          250    3.0431017 
  362000    597.09708          250    2.9580071 
  364000    596.80989          250    2.9915232 
  366000    596.35552          250     3.058853 
  368000    595.23384          250    3.1868578 
  370000    596.63306          250    3.0720337 
  372000    597.13972          250    3.0408173 
  374000    597.53655          250    3.0164948 
  376000    596.08057          250    3.1594173 
  378000    596.18454          250    3.1577224 
  380000    594.61513          250    3.2946062 
  382000    598.20283          250    2.9883997 
  384000    596.90919          250    3.1060333 
  386000    596.52168          250    3.1368181 
  388000    597.69568          250    3.0380913 
  390000     598.2871          250    2.9641144 
  392000    594.82637          250    3.2543099 
  394000     597.5192          250    3.0169016 
  396000    597.06593          250    3.0454875 
  398000     597.8952          250    2.9587394 
  400000    596.23747          250     3.089335 
  402000    596.98678          250    3.0031209 
  404000    597.37214          250    2.9431673 
  406000    595.95387          250    3.0509403 
  408000    595.22873          250    3.0900992 
  410000    595.21928          250    3.0596301 
  412000    595.49741          250    3.0110612 
  414000    594.79985          250    3.0469937 
  416000    594.94711          250    3.0147943 
  418000    592.68036          250    3.1804134 
  420000     594.3047          250    3.0201626 
  422000    594.69189          250    2.9731266 
  424000    594.52687          250    2.9617696 
  426000    594.36185          250    2.9623133 
  428000    595.52928          250    2.8479633 
  430000    594.20643          250    2.9396245 
  432000    594.84778          250    2.8679057 
  434000     594.1538          250    2.9226715 
  436000    594.26433          250    2.8982246 
  438000    594.31329          250    2.8856505 
  440000    593.77762          250    2.9181009 
  442000    592.80202          250    3.0008124 
  444000    593.81633          250    2.9038158 
  446000    594.08565          250    2.8838514 
  448000    594.40531          250    2.8604203 
  450000    593.68915          250    2.9166349 
  452000    592.77828          250    3.0063369 
  454000    592.83502          250    3.0130018 
  456000    594.85471          250     2.847006 
  458000     594.7306          250    2.8740056 
  460000    593.66893          250    2.9790838 
  462000    593.58942          250    2.9942001 
  464000    594.27285          250    2.9592394 
  466000    594.36157          250    2.9688052 
  468000    593.50267          250    3.0683618 
  470000    594.86235          250    2.9843103 
  472000    595.70384          250    2.9237551 
  474000    595.47419          250     2.972582 
  476000    594.05125          250    3.1188672 
  478000    595.17696          250    3.0391714 
  480000    597.72548          250    2.8368389 
  482000    595.20438          250    3.0797859 
  484000    594.73962          250      3.15292 
  486000    597.49066          250    2.9176337 
  488000    596.35902          250    3.0457926 
  490000    597.03441          250    3.0024581 
  492000    597.23763          250    2.9928473 
  494000    595.80527          250    3.1381484 
  496000    594.45762          250    3.2621637 
  498000     595.3543          250    3.1888844 
  500000    597.58231          250    3.0080287 
Loop time of 396.724 on 1 procs for 500000 steps with 500 atoms

Performance: 544459.229 tau/day, 1260.322 timesteps/s
93.5% CPU use with 1 MPI tasks x no OpenMP threads

MPI task timing breakdown:
Section |  min time  |  avg time  |  max time  |%varavg| %total
---------------------------------------------------------------
Pair    | 339.36     | 339.36     | 339.36     |   0.0 | 85.54
Neigh   | 41.67      | 41.67      | 41.67      |   0.0 | 10.50
Comm    | 9.1415     | 9.1415     | 9.1415     |   0.0 |  2.30
Output  | 0.037806   | 0.037806   | 0.037806   |   0.0 |  0.01
Modify  | 4.8322     | 4.8322     | 4.8322     |   0.0 |  1.22
Other   |            | 1.68       |            |       |  0.42

Nlocal:    500 ave 500 max 500 min
Histogram: 1 0 0 0 0 0 0 0 0 0
Nghost:    2930 ave 2930 max 2930 min
Histogram: 1 0 0 0 0 0 0 0 0 0
Neighs:    45823 ave 45823 max 45823 min
Histogram: 1 0 0 0 0 0 0 0 0 0

Total # of neighbors = 45823
Ave neighs/atom = 91.646
Neighbor list builds = 25000
Dangerous builds not checked
Total wall time: 0:06:36
