LAMMPS (19 Oct 2016)
# equation of state for LJ

variable temp equal 0.5
variable rho  equal 0.25

units lj
atom_style atomic

lattice    fcc ${rho}
lattice    fcc 0.25
Lattice spacing in x,y,z = 2.51984 2.51984 2.51984
region box block 0 5 0 5 0 5
create_box 1 box
Created orthogonal box = (0 0 0) to (12.5992 12.5992 12.5992)
  1 by 1 by 1 MPI processor grid
create_atoms 1 box
Created 500 atoms
mass       1 1.0

pair_style lj/cut 2.5
pair_coeff 1 1 1.0 1.0 2.5

velocity   all create ${temp} 87287
velocity   all create 0.5 87287

neighbor   0.3 bin
neigh_modify every 20 delay 0 check no

fix        1 all nvt temp ${temp} ${temp} 100
fix        1 all nvt temp 0.5 ${temp} 100
fix        1 all nvt temp 0.5 0.5 100
dump       1 all custom 70000 dump_t${temp}_r${rho}.lammpstrj id type x y z
dump       1 all custom 70000 dump_t0.5_r${rho}.lammpstrj id type x y z
dump       1 all custom 70000 dump_t0.5_r0.25.lammpstrj id type x y z
thermo     2000
thermo_style  custom step press vol temp
thermo_modify flush yes

run 500000
Neighbor list info ...
  1 neighbor list requests
  update every 20 steps, delay 0 steps, check no
  max neighbors/atom: 2000, page size: 100000
  master list distance cutoff = 2.8
  ghost atom cutoff = 2.8
  binsize = 1.4 -> bins = 9 9 9
Memory usage per processor = 3.29398 Mbytes
Step Press Volume Temp 
       0   -0.2268125         2000          0.5 
    2000    0.1699789         2000    1.1911337 
    4000   0.11476491         2000    1.1384413 
    6000   0.10792496         2000    1.0955573 
    8000   0.05409872         2000    1.1101964 
   10000   0.10834373         2000    1.0658898 
   12000  0.040436351         2000   0.98703973 
   14000  0.089054326         2000    1.0417784 
   16000   0.13332826         2000    1.0818958 
   18000  0.069750734         2000   0.94231935 
   20000   0.08479137         2000   0.97309167 
   22000  0.050034921         2000   0.95727623 
   24000  0.031642575         2000   0.90720561 
   26000  0.058817038         2000   0.97421425 
   28000  0.017494389         2000   0.92145122 
   30000  0.038888018         2000   0.94585237 
   32000  0.029251495         2000   0.88868872 
   34000 0.00052202611         2000   0.95488975 
   36000  0.022133532         2000   0.92014412 
   38000  0.075716185         2000    0.8067175 
   40000   0.10197731         2000   0.89600988 
   42000  0.055192772         2000   0.88627459 
   44000  0.064730901         2000   0.93447081 
   46000  0.015083904         2000   0.87943597 
   48000  0.062284532         2000   0.83349751 
   50000 -0.064960269         2000   0.87978091 
   52000 -0.062783529         2000   0.84034705 
   54000  0.045677784         2000   0.79279942 
   56000   0.02163408         2000   0.82818826 
   58000 -0.066785712         2000   0.81528636 
   60000 -0.0024914268         2000   0.78394065 
   62000  0.051306737         2000     0.764506 
   64000 -0.064269343         2000   0.78187759 
   66000  0.043514852         2000   0.78456257 
   68000  0.087676639         2000   0.79341563 
   70000  -0.02860343         2000   0.75799389 
   72000  0.010252482         2000   0.74091655 
   74000  0.050443755         2000   0.77838085 
   76000 -0.063876394         2000   0.72493332 
   78000  -0.05194913         2000    0.7087779 
   80000 -0.010597292         2000   0.69375375 
   82000 -0.025806584         2000   0.67269522 
   84000  0.011644472         2000   0.70901871 
   86000  -0.06399507         2000   0.68655158 
   88000 -0.0041364508         2000    0.7009945 
   90000  0.015857684         2000   0.68843362 
   92000 -0.097131587         2000   0.65427444 
   94000  -0.13865304         2000   0.67975362 
   96000  0.059054666         2000   0.66686209 
   98000 -0.078877997         2000   0.65349935 
  100000  -0.08675761         2000   0.64274095 
  102000  -0.10800815         2000   0.67622842 
  104000 -0.041684464         2000   0.66036075 
  106000 -0.056656363         2000   0.59849576 
  108000  0.014267107         2000   0.65580736 
  110000  0.033017249         2000   0.60172708 
  112000  0.013993279         2000   0.61778214 
  114000 -0.0066644962         2000     0.621437 
  116000 -0.0024885952         2000   0.60006024 
  118000   0.01217543         2000   0.56870426 
  120000 -0.051266683         2000   0.58535552 
  122000 -0.035107031         2000    0.5934469 
  124000   0.04471548         2000   0.62835572 
  126000 -0.090671334         2000   0.56215772 
  128000 -0.062812731         2000   0.57831523 
  130000 -0.026374122         2000    0.5717669 
  132000 -0.0093533445         2000   0.55975442 
  134000  0.024004681         2000   0.53267487 
  136000 -0.022341496         2000   0.52582766 
  138000  0.014428129         2000   0.56256729 
  140000 -0.0087782517         2000   0.55837105 
  142000  -0.15296334         2000   0.52858272 
  144000 -0.025261836         2000   0.53366474 
  146000   -0.1070078         2000   0.51749763 
  148000  -0.10735578         2000   0.51122158 
  150000  -0.12629691         2000   0.54685399 
  152000  -0.10466656         2000   0.51942191 
  154000  0.019609716         2000   0.49606334 
  156000  -0.16795264         2000   0.50705075 
  158000 -0.074892192         2000   0.49179209 
  160000 -0.026669518         2000   0.47410089 
  162000 0.0051955331         2000   0.48404583 
  164000 -0.049557939         2000   0.48601842 
  166000 -0.046813293         2000   0.45114203 
  168000  -0.11972439         2000   0.49296365 
  170000 -0.049517458         2000   0.49181695 
  172000  -0.12264654         2000   0.51378074 
  174000  -0.10306383         2000   0.48999531 
  176000 -0.027038553         2000   0.48971439 
  178000 -0.055071186         2000   0.48164278 
  180000 -0.082831462         2000   0.49546756 
  182000  -0.04743441         2000     0.452728 
  184000 -0.025421575         2000   0.48212102 
  186000 -0.050267793         2000   0.45994265 
  188000 -0.0095055114         2000   0.47447779 
  190000 -0.023471327         2000   0.46730435 
  192000  -0.17249154         2000   0.47102428 
  194000 -0.030381467         2000   0.46027873 
  196000 -0.091982516         2000   0.47575152 
  198000 -0.073319016         2000   0.44662396 
  200000 -0.080652198         2000   0.48169203 
  202000 -0.099086357         2000   0.48919452 
  204000  0.019765089         2000    0.4861181 
  206000 -0.034768475         2000   0.46052459 
  208000 0.0025471939         2000   0.47134315 
  210000   -0.0451733         2000   0.46127183 
  212000 -0.071129182         2000   0.49507319 
  214000  0.068910078         2000   0.48617234 
  216000 -0.097992735         2000   0.48358521 
  218000 -0.043498154         2000   0.49711464 
  220000  0.013050262         2000   0.48481355 
  222000  0.017854957         2000   0.49816323 
  224000  -0.02152069         2000   0.49444338 
  226000  -0.12250927         2000   0.49221265 
  228000   0.12577627         2000   0.50556602 
  230000 0.00028886152         2000   0.50571028 
  232000 -0.078601877         2000   0.50999506 
  234000  0.066989665         2000   0.49682504 
  236000  0.091615554         2000   0.47927796 
  238000 -0.023979466         2000    0.4898865 
  240000 -0.0070600101         2000   0.48063598 
  242000 0.00036872142         2000   0.53461467 
  244000  0.054065294         2000   0.52624551 
  246000 -0.086911035         2000    0.4970465 
  248000 0.0050702117         2000   0.50100446 
  250000  0.023438725         2000   0.50341135 
  252000 -0.050912688         2000    0.5083586 
  254000 -0.044321746         2000   0.51946439 
  256000 0.0028825298         2000   0.51115861 
  258000 -0.034739221         2000   0.48832308 
  260000 -0.090919779         2000   0.49727856 
  262000 -0.045828963         2000   0.52267062 
  264000  0.016812444         2000   0.53318987 
  266000 -0.020873318         2000   0.49025084 
  268000 -0.031758654         2000   0.52149548 
  270000 0.0094279729         2000     0.521028 
  272000 -0.061729484         2000    0.5164676 
  274000  -0.03999324         2000   0.50496947 
  276000 -0.034142845         2000    0.5169496 
  278000   -0.1048288         2000   0.50705904 
  280000  0.018747186         2000   0.55861601 
  282000  0.028635701         2000   0.52157027 
  284000 -0.076172775         2000   0.53353662 
  286000 -0.018329954         2000   0.51583308 
  288000 0.00023040777         2000    0.5089607 
  290000 0.0034297103         2000   0.51834593 
  292000  0.020796744         2000   0.50232598 
  294000   0.01641548         2000   0.52093647 
  296000 -0.015904695         2000   0.51959068 
  298000  0.019298755         2000   0.50161948 
  300000 -0.071403307         2000   0.51726029 
  302000  0.018233386         2000   0.50809893 
  304000 -2.609331e-05         2000    0.4867579 
  306000 -0.063306444         2000   0.49811391 
  308000  0.035242153         2000   0.51872001 
  310000 -0.0073930192         2000   0.49048214 
  312000 -0.027323025         2000    0.5121186 
  314000 0.0040925176         2000   0.48439927 
  316000 -0.026753081         2000   0.51486477 
  318000  0.042600719         2000   0.48525508 
  320000 -0.075941573         2000   0.50624823 
  322000 -0.024798652         2000    0.4855515 
  324000 -0.052911714         2000   0.48627629 
  326000  -0.10719301         2000   0.50743802 
  328000  0.026500628         2000    0.5180594 
  330000 -0.016519032         2000   0.50955418 
  332000  0.065282101         2000   0.51805422 
  334000  0.035387787         2000   0.50488217 
  336000 -0.074042273         2000    0.4741663 
  338000 0.0025421535         2000   0.44891954 
  340000 -0.075467525         2000   0.47362799 
  342000 -0.023334858         2000    0.4932305 
  344000  -0.04815222         2000   0.50569596 
  346000 -0.063631675         2000   0.50136929 
  348000 -0.0092878445         2000   0.47816848 
  350000  0.043869542         2000   0.50700147 
  352000 -0.066489872         2000   0.49834449 
  354000 -0.030997687         2000   0.49909257 
  356000 -0.0017772246         2000   0.48103202 
  358000  -0.03906068         2000   0.46586094 
  360000   0.01528256         2000   0.49617078 
  362000 -0.047862143         2000   0.47755284 
  364000  0.064617537         2000   0.48201418 
  366000 -0.044276881         2000   0.47125245 
  368000 -0.065961434         2000   0.48095114 
  370000  0.021648397         2000   0.47658296 
  372000 -0.042709597         2000    0.4728653 
  374000  0.034834057         2000   0.48309007 
  376000 -0.081247559         2000   0.48434302 
  378000 -0.0049457329         2000   0.46429107 
  380000   0.00110898         2000   0.51393774 
  382000 -0.041544376         2000   0.48681711 
  384000  0.012524937         2000   0.50415012 
  386000 -0.041765174         2000   0.48495341 
  388000  0.030545417         2000   0.46521828 
  390000 -0.024776262         2000   0.53001289 
  392000  -0.11405097         2000   0.46007671 
  394000 -0.047584281         2000   0.45998249 
  396000 -0.091823178         2000   0.48617233 
  398000 -0.012758484         2000    0.4812312 
  400000 -0.083672104         2000   0.51907786 
  402000 -0.088382894         2000   0.48482352 
  404000 0.0009294497         2000   0.49946476 
  406000 -0.030442393         2000   0.50146376 
  408000 -0.051353679         2000   0.49128541 
  410000  0.057613193         2000   0.47965152 
  412000 -0.015760149         2000   0.51960276 
  414000  0.053860259         2000   0.51866557 
  416000 -0.060052937         2000   0.52625595 
  418000  0.027002934         2000   0.49949167 
  420000   0.02768552         2000   0.50911149 
  422000 0.0013000839         2000   0.52399384 
  424000 -0.0055466191         2000   0.49549291 
  426000  0.034052714         2000   0.51656635 
  428000   0.06656974         2000   0.51295164 
  430000 -0.074009134         2000   0.53896912 
  432000  0.047025575         2000   0.53356632 
  434000 -0.0073535483         2000   0.53741683 
  436000  0.016289854         2000   0.52893859 
  438000 -0.027803772         2000   0.50319599 
  440000 -0.025634853         2000   0.53699129 
  442000 -0.099051482         2000    0.4974512 
  444000 0.0077311738         2000   0.51167549 
  446000  0.035585517         2000   0.50554496 
  448000 -0.009835428         2000   0.49307681 
  450000 -0.074696588         2000   0.49736629 
  452000 -0.053809385         2000   0.54044332 
  454000    0.0140788         2000   0.51702434 
  456000 -0.0070055133         2000   0.51030628 
  458000 0.00029365889         2000   0.51953962 
  460000  0.049367696         2000   0.49315344 
  462000 -0.079408917         2000   0.52872889 
  464000  0.032102098         2000   0.52407513 
  466000 -0.0062300326         2000   0.49362515 
  468000 -0.025120789         2000   0.53845705 
  470000 -0.096416291         2000   0.48702495 
  472000  0.040522403         2000   0.52997655 
  474000 -0.072157363         2000   0.49352433 
  476000 -0.052114072         2000   0.50440166 
  478000 -0.065366024         2000   0.48692949 
  480000  0.009513974         2000   0.49921011 
  482000  0.012340646         2000    0.5044682 
  484000 -0.024220085         2000    0.4859737 
  486000  0.071449091         2000   0.50827476 
  488000 -0.063139242         2000   0.48847852 
  490000 0.0029030301         2000   0.49446241 
  492000 -0.034172666         2000   0.50422677 
  494000 -0.038716567         2000   0.47264731 
  496000 -0.022182136         2000    0.5176844 
  498000 -0.066161191         2000   0.50913583 
  500000 0.0094017236         2000   0.47642202 
Loop time of 109.332 on 1 procs for 500000 steps with 500 atoms

Performance: 1975639.415 tau/day, 4573.239 timesteps/s
95.1% CPU use with 1 MPI tasks x no OpenMP threads

MPI task timing breakdown:
Section |  min time  |  avg time  |  max time  |%varavg| %total
---------------------------------------------------------------
Pair    | 88.182     | 88.182     | 88.182     |   0.0 | 80.66
Neigh   | 13.963     | 13.963     | 13.963     |   0.0 | 12.77
Comm    | 2.3929     | 2.3929     | 2.3929     |   0.0 |  2.19
Output  | 0.019783   | 0.019783   | 0.019783   |   0.0 |  0.02
Modify  | 4.17       | 4.17       | 4.17       |   0.0 |  3.81
Other   |            | 0.6045     |            |       |  0.55

Nlocal:    500 ave 500 max 500 min
Histogram: 1 0 0 0 0 0 0 0 0 0
Nghost:    642 ave 642 max 642 min
Histogram: 1 0 0 0 0 0 0 0 0 0
Neighs:    13729 ave 13729 max 13729 min
Histogram: 1 0 0 0 0 0 0 0 0 0

Total # of neighbors = 13729
Ave neighs/atom = 27.458
Neighbor list builds = 25000
Dangerous builds not checked
Total wall time: 0:01:49
