LAMMPS (19 Oct 2016)
# equation of state for LJ

variable temp equal 0.5
variable rho  equal 0.87

units lj
atom_style atomic

lattice    fcc ${rho}
lattice    fcc 0.87
Lattice spacing in x,y,z = 1.66283 1.66283 1.66283
region box block 0 5 0 5 0 5
create_box 1 box
Created orthogonal box = (0 0 0) to (8.31413 8.31413 8.31413)
  1 by 1 by 1 MPI processor grid
create_atoms 1 box
Created 500 atoms
mass       1 1.0

pair_style lj/cut 2.5
pair_coeff 1 1 1.0 1.0 2.5

velocity   all create ${temp} 87287
velocity   all create 0.5 87287

neighbor   0.3 bin
neigh_modify every 20 delay 0 check no

fix        1 all nvt temp ${temp} ${temp} 100
fix        1 all nvt temp 0.5 ${temp} 100
fix        1 all nvt temp 0.5 0.5 100
dump       1 all custom 70000 dump_t${temp}_r${rho}.lammpstrj id type x y z
dump       1 all custom 70000 dump_t0.5_r${rho}.lammpstrj id type x y z
dump       1 all custom 70000 dump_t0.5_r0.87.lammpstrj id type x y z
thermo     2000
thermo_style  custom step press vol temp
thermo_modify flush yes

run 500000
Neighbor list info ...
  1 neighbor list requests
  update every 20 steps, delay 0 steps, check no
  max neighbors/atom: 2000, page size: 100000
  master list distance cutoff = 2.8
  ghost atom cutoff = 2.8
  binsize = 1.4 -> bins = 6 6 6
Memory usage per processor = 3.32155 Mbytes
Step Press Volume Temp 
       0   -5.6840128    574.71264          0.5 
    2000   -3.6730405    574.71264   0.25199247 
    4000   -3.8033051    574.71264   0.27013847 
    6000   -3.7849799    574.71264   0.27503697 
    8000   -3.7125022    574.71264   0.26432686 
   10000   -3.6546802    574.71264    0.2681991 
   12000   -3.5628378    574.71264   0.26403485 
   14000   -3.6686436    574.71264   0.28481481 
   16000   -3.5676781    574.71264    0.2804427 
   18000   -3.7563511    574.71264   0.30694203 
   20000   -3.4716821    574.71264   0.28080491 
   22000   -3.3622483    574.71264    0.2779998 
   24000   -3.5391056    574.71264   0.30905937 
   26000   -3.4595483    574.71264   0.30759549 
   28000   -3.3830628    574.71264   0.31085396 
   30000   -3.4096719    574.71264   0.32301599 
   32000   -3.3550722    574.71264   0.32877559 
   34000   -3.3266012    574.71264   0.33431953 
   36000   -3.2338691    574.71264   0.32917906 
   38000   -3.1714145    574.71264    0.3351991 
   40000   -3.2661531    574.71264   0.35322939 
   42000   -3.1626487    574.71264   0.35141658 
   44000   -3.0509184    574.71264   0.34859705 
   46000   -3.1373564    574.71264   0.37092959 
   48000   -3.1053074    574.71264   0.37681965 
   50000   -2.9803529    574.71264    0.3790023 
   52000   -2.7313581    574.71264   0.35589768 
   54000   -2.9077381    574.71264   0.39308506 
   56000   -2.7540377    574.71264   0.37961869 
   58000   -2.6942705    574.71264   0.38570794 
   60000    -2.798441    574.71264   0.40944483 
   62000   -2.7461108    574.71264   0.41312143 
   64000   -2.5945527    574.71264   0.40214101 
   66000   -2.6728623    574.71264   0.42867999 
   68000   -2.6013129    574.71264   0.43338023 
   70000   -2.6500802    574.71264   0.44549907 
   72000    -2.529634    574.71264    0.4448915 
   74000   -2.4208908    574.71264    0.4443193 
   76000   -2.2812609    574.71264   0.44036151 
   78000   -2.3868252    574.71264   0.45645528 
   80000   -2.3494072    574.71264   0.46566076 
   82000   -2.3465441    574.71264   0.47941634 
   84000   -2.1315417    574.71264   0.45902528 
   86000   -2.1920137    574.71264   0.47534559 
   88000   -2.0726994    574.71264   0.46996371 
   90000   -2.0391509    574.71264   0.48015116 
   92000   -2.0553209    574.71264   0.49099388 
   94000   -2.0568616    574.71264   0.50140644 
   96000   -1.8728677    574.71264    0.4823759 
   98000   -1.9613865    574.71264   0.50311765 
  100000   -2.1080533    574.71264   0.53710608 
  102000   -1.8831977    574.71264   0.50322708 
  104000   -1.8786246    574.71264   0.52408102 
  106000   -1.9533072    574.71264   0.52573319 
  108000   -1.8302267    574.71264    0.5169451 
  110000   -1.8933961    574.71264   0.53231284 
  112000    -1.826782    574.71264    0.5271733 
  114000   -1.7114577    574.71264    0.5173665 
  116000   -1.7892425    574.71264    0.5288904 
  118000   -1.9032133    574.71264   0.55359693 
  120000    -1.659473    574.71264   0.51990707 
  122000   -1.8824401    574.71264   0.54505978 
  124000   -1.7747313    574.71264   0.53790153 
  126000   -1.7330703    574.71264   0.53011351 
  128000    -1.837006    574.71264   0.53492058 
  130000   -1.8305771    574.71264   0.53872062 
  132000   -1.7138042    574.71264   0.51625642 
  134000   -1.7740746    574.71264   0.52540001 
  136000   -1.8203849    574.71264    0.5292821 
  138000   -1.9664892    574.71264   0.53748061 
  140000   -1.7688826    574.71264   0.50294677 
  142000   -1.8912763    574.71264   0.51100728 
  144000   -1.9189664    574.71264   0.51041962 
  146000   -1.9930228    574.71264   0.51210513 
  148000   -2.0449198    574.71264   0.51843465 
  150000   -1.8714456    574.71264   0.48704264 
  152000   -2.0886819    574.71264   0.51397907 
  154000   -1.9460396    574.71264   0.49046656 
  156000   -2.2203508    574.71264    0.5154474 
  158000   -2.1130382    574.71264   0.49406906 
  160000   -2.3287342    574.71264   0.52183592 
  162000    -2.288315    574.71264   0.50696877 
  164000   -2.1368979    574.71264   0.48605708 
  166000   -2.2460826    574.71264   0.48901053 
  168000   -2.2502627    574.71264   0.48995289 
  170000   -2.1916688    574.71264   0.47978667 
  172000   -2.1766171    574.71264   0.47742445 
  174000   -2.0964719    574.71264   0.45785813 
  176000   -2.2471576    574.71264   0.48062833 
  178000   -2.3493344    574.71264   0.49072226 
  180000   -2.0977267    574.71264   0.46586752 
  182000   -2.3491004    574.71264   0.48931352 
  184000   -2.1435077    574.71264   0.46488158 
  186000   -2.1918152    574.71264   0.47063013 
  188000   -2.3979633    574.71264   0.49718827 
  190000   -2.1252096    574.71264   0.47433076 
  192000   -2.2364513    574.71264   0.48035876 
  194000   -2.0505363    574.71264   0.46062231 
  196000   -2.1276135    574.71264   0.47314392 
  198000   -2.1691342    574.71264    0.4813895 
  200000   -2.1190246    574.71264   0.48403744 
  202000   -2.1836328    574.71264   0.49317232 
  204000   -2.2201943    574.71264   0.50043836 
  206000   -2.0750422    574.71264   0.48549551 
  208000   -2.1053196    574.71264   0.49435792 
  210000   -2.1244671    574.71264   0.50435396 
  212000   -2.1489287    574.71264   0.50736753 
  214000   -2.1102999    574.71264   0.51308567 
  216000   -2.0733305    574.71264    0.5128934 
  218000    -1.873281    574.71264   0.49201249 
  220000    -2.142909    574.71264    0.5282504 
  222000   -1.9405274    574.71264   0.51059301 
  224000   -1.8761696    574.71264   0.50266665 
  226000   -2.0959354    574.71264   0.53617731 
  228000   -1.6539373    574.71264   0.48682317 
  230000   -1.9440522    574.71264    0.5211465 
  232000   -1.9294402    574.71264   0.52859991 
  234000   -2.0128554    574.71264   0.53548321 
  236000   -2.0115748    574.71264   0.53782944 
  238000   -1.9856558    574.71264   0.53937637 
  240000   -1.8560301    574.71264   0.51744846 
  242000   -1.7576868    574.71264   0.49949016 
  244000   -1.9811864    574.71264   0.53962195 
  246000   -1.8011294    574.71264   0.51373056 
  248000     -1.72496    574.71264   0.49990901 
  250000   -1.9403255    574.71264   0.53130999 
  252000   -1.7633457    574.71264    0.5004739 
  254000    -1.764513    574.71264   0.49409518 
  256000   -1.8307877    574.71264   0.50930754 
  258000   -2.1241203    574.71264    0.5466561 
  260000   -2.0036083    574.71264    0.5177809 
  262000   -2.0020972    574.71264   0.51833292 
  264000   -1.9680696    574.71264   0.50480689 
  266000   -2.0121916    574.71264   0.50900428 
  268000   -1.9291574    574.71264   0.49854585 
  270000   -2.0961852    574.71264   0.51345244 
  272000   -1.9841415    574.71264   0.49256339 
  274000   -2.0284401    574.71264    0.4983782 
  276000   -2.0143282    574.71264   0.49043356 
  278000   -2.0932976    574.71264   0.49437217 
  280000   -2.0218321    574.71264    0.4814506 
  282000   -2.0596879    574.71264   0.48381221 
  284000   -2.1513854    574.71264   0.49185989 
  286000   -2.0412228    574.71264    0.4776844 
  288000   -2.0917646    574.71264   0.48250658 
  290000   -1.9917459    574.71264   0.46247142 
  292000    -2.219594    574.71264   0.48973948 
  294000   -2.2139368    574.71264   0.48802292 
  296000   -2.1589067    574.71264   0.47761395 
  298000   -2.1971713    574.71264   0.48701266 
  300000   -2.2089119    574.71264   0.48680669 
  302000   -2.1506657    574.71264   0.48556681 
  304000   -2.1875719    574.71264   0.48509393 
  306000   -2.1688907    574.71264   0.47480886 
  308000   -2.2263613    574.71264   0.49562566 
  310000   -2.0977471    574.71264   0.47031616 
  312000   -2.0951385    574.71264   0.47249694 
  314000   -2.3339373    574.71264   0.50912193 
  316000   -2.2037015    574.71264   0.49359399 
  318000   -2.1161478    574.71264   0.48681159 
  320000   -2.0450533    574.71264   0.48395251 
  322000   -2.1693235    574.71264   0.49530715 
  324000   -2.0312992    574.71264   0.48347448 
  326000   -2.0638314    574.71264   0.49476928 
  328000   -2.0085565    574.71264    0.4864963 
  330000   -2.0447786    574.71264   0.49420432 
  332000   -1.9599421    574.71264    0.4892583 
  334000   -2.2142003    574.71264   0.52580386 
  336000   -2.0880809    574.71264   0.51140553 
  338000   -2.0112345    574.71264   0.50315233 
  340000   -1.9943807    574.71264   0.50521764 
  342000   -2.0804163    574.71264   0.51683744 
  344000   -2.0882529    574.71264   0.52343526 
  346000   -1.9441547    574.71264    0.5109617 
  348000   -2.0447102    574.71264   0.52889973 
  350000   -2.0098434    574.71264   0.51973989 
  352000   -1.9662789    574.71264   0.52376017 
  354000   -2.0117495    574.71264   0.53066595 
  356000   -1.9768579    574.71264   0.52016947 
  358000   -1.9223994    574.71264   0.51516032 
  360000   -1.9173255    574.71264   0.51813252 
  362000   -2.0250117    574.71264   0.53638382 
  364000   -1.8036024    574.71264    0.5084304 
  366000   -1.9064375    574.71264   0.52204114 
  368000   -1.9420888    574.71264    0.5189012 
  370000   -1.9907928    574.71264   0.52820431 
  372000   -1.9699365    574.71264   0.52070854 
  374000   -1.8152595    574.71264   0.49847981 
  376000   -1.8501589    574.71264   0.50429802 
  378000   -2.1399306    574.71264   0.53529386 
  380000   -1.9661629    574.71264   0.51455482 
  382000   -2.0004314    574.71264   0.50622018 
  384000   -1.8719557    574.71264   0.49171604 
  386000   -2.0529382    574.71264   0.51316376 
  388000   -1.9512587    574.71264   0.49351952 
  390000   -2.0819302    574.71264   0.51132184 
  392000   -2.0365208    574.71264   0.49788138 
  394000   -2.0358667    574.71264    0.4938327 
  396000   -1.9211497    574.71264   0.47046874 
  398000   -2.0865138    574.71264   0.49511617 
  400000   -2.0859728    574.71264   0.49410117 
  402000   -2.0522213    574.71264    0.4863674 
  404000   -2.0117516    574.71264   0.47279259 
  406000    -2.161433    574.71264   0.49280948 
  408000   -2.0995153    574.71264   0.47891475 
  410000   -2.1091538    574.71264   0.47858738 
  412000    -2.164077    574.71264   0.48351461 
  414000   -2.1426199    574.71264   0.48599538 
  416000   -2.1361707    574.71264   0.48538412 
  418000   -2.0524626    574.71264   0.47777913 
  420000   -2.1195636    574.71264   0.47395917 
  422000   -2.1338127    574.71264   0.48564439 
  424000   -2.1130455    574.71264   0.47275493 
  426000   -2.2117194    574.71264   0.49065386 
  428000   -2.2183067    574.71264   0.49639243 
  430000   -2.0524559    574.71264   0.47645022 
  432000    -2.162282    574.71264   0.48555052 
  434000   -2.1308396    574.71264   0.48164798 
  436000   -2.1034796    574.71264   0.48680266 
  438000   -2.1274148    574.71264   0.48575443 
  440000   -2.0938651    574.71264   0.49292266 
  442000   -1.9723267    574.71264   0.48024069 
  444000   -2.1275567    574.71264   0.50730987 
  446000   -1.8987516    574.71264   0.48335825 
  448000   -2.0817034    574.71264   0.50613056 
  450000    -1.999749    574.71264   0.49699244 
  452000   -2.0003189    574.71264   0.51164946 
  454000   -2.0735783    574.71264   0.51251659 
  456000   -1.9567706    574.71264   0.51137205 
  458000   -1.9595981    574.71264   0.50048331 
  460000   -1.8385903    574.71264   0.49433223 
  462000   -2.0931768    574.71264   0.52915611 
  464000   -1.8808468    574.71264   0.50881122 
  466000   -2.1682263    574.71264   0.54881516 
  468000   -1.9808473    574.71264   0.51749474 
  470000   -1.9635541    574.71264   0.52680165 
  472000    -1.967517    574.71264   0.52229999 
  474000   -1.9058114    574.71264   0.51019149 
  476000   -2.0125258    574.71264   0.52942561 
  478000    -1.836483    574.71264   0.49921011 
  480000     -1.88669    574.71264   0.51148152 
  482000    -1.953143    574.71264   0.52231898 
  484000   -1.8891168    574.71264   0.50475504 
  486000    -1.911862    574.71264   0.50883018 
  488000   -1.8922905    574.71264   0.50674479 
  490000   -1.9990233    574.71264   0.50971982 
  492000   -1.9763325    574.71264   0.50684989 
  494000   -2.0825556    574.71264   0.52302981 
  496000   -1.9975363    574.71264    0.5036847 
  498000   -1.9362881    574.71264   0.49521122 
  500000   -1.9566911    574.71264   0.48562864 
Loop time of 246.771 on 1 procs for 500000 steps with 500 atoms

Performance: 875305.771 tau/day, 2026.171 timesteps/s
82.3% CPU use with 1 MPI tasks x no OpenMP threads

MPI task timing breakdown:
Section |  min time  |  avg time  |  max time  |%varavg| %total
---------------------------------------------------------------
Pair    | 197.03     | 197.03     | 197.03     |   0.0 | 79.84
Neigh   | 32.969     | 32.969     | 32.969     |   0.0 | 13.36
Comm    | 8.4767     | 8.4767     | 8.4767     |   0.0 |  3.44
Output  | 0.047435   | 0.047435   | 0.047435   |   0.0 |  0.02
Modify  | 6.5269     | 6.5269     | 6.5269     |   0.0 |  2.64
Other   |            | 1.72       |            |       |  0.70

Nlocal:    500 ave 500 max 500 min
Histogram: 1 0 0 0 0 0 0 0 0 0
Nghost:    1956 ave 1956 max 1956 min
Histogram: 1 0 0 0 0 0 0 0 0 0
Neighs:    19463 ave 19463 max 19463 min
Histogram: 1 0 0 0 0 0 0 0 0 0

Total # of neighbors = 19463
Ave neighs/atom = 38.926
Neighbor list builds = 25000
Dangerous builds not checked
Total wall time: 0:04:06
