LAMMPS (19 Oct 2016)
# equation of state for LJ

variable temp equal 0.5
variable rho  equal 0.95

units lj
atom_style atomic

lattice    fcc ${rho}
lattice    fcc 0.95
Lattice spacing in x,y,z = 1.61478 1.61478 1.61478
region box block 0 5 0 5 0 5
create_box 1 box
Created orthogonal box = (0 0 0) to (8.07388 8.07388 8.07388)
  1 by 1 by 1 MPI processor grid
create_atoms 1 box
Created 500 atoms
mass       1 1.0

pair_style lj/cut 2.5
pair_coeff 1 1 1.0 1.0 2.5

velocity   all create ${temp} 87287
velocity   all create 0.5 87287

neighbor   0.3 bin
neigh_modify every 20 delay 0 check no

fix        1 all nvt temp ${temp} ${temp} 100
fix        1 all nvt temp 0.5 ${temp} 100
fix        1 all nvt temp 0.5 0.5 100
dump       1 all custom 70000 dump_t${temp}_r${rho}.lammpstrj id type x y z
dump       1 all custom 70000 dump_t0.5_r${rho}.lammpstrj id type x y z
dump       1 all custom 70000 dump_t0.5_r0.95.lammpstrj id type x y z
thermo     2000
thermo_style  custom step press vol temp
thermo_modify flush yes

run 500000
Neighbor list info ...
  1 neighbor list requests
  update every 20 steps, delay 0 steps, check no
  max neighbors/atom: 2000, page size: 100000
  master list distance cutoff = 2.8
  ghost atom cutoff = 2.8
  binsize = 1.4 -> bins = 6 6 6
Memory usage per processor = 3.32155 Mbytes
Step Press Volume Temp 
       0   -4.4634415    526.31579          0.5 
    2000   -2.7766636    526.31579   0.26953545 
    4000   -2.6540766    526.31579   0.25629691 
    6000   -2.6674016    526.31579    0.2641087 
    8000   -2.6451822    526.31579   0.26802166 
   10000   -2.5582263    526.31579   0.26703729 
   12000   -2.5969376    526.31579   0.27498569 
   14000   -2.5919731    526.31579    0.2801345 
   16000   -2.5463576    526.31579   0.28370249 
   18000   -2.4095362    526.31579   0.27301108 
   20000   -2.3939284    526.31579   0.27854188 
   22000   -2.4257973    526.31579   0.29085599 
   24000   -2.3968657    526.31579   0.29611983 
   26000   -2.4146295    526.31579   0.30963767 
   28000   -2.3233731    526.31579   0.30822776 
   30000   -2.3535106    526.31579    0.3213358 
   32000    -2.339902    526.31579   0.32700995 
   34000   -2.2295627    526.31579   0.32464223 
   36000   -2.1687147    526.31579   0.32453893 
   38000   -2.1564205    526.31579   0.33717674 
   40000   -2.0471732    526.31579   0.32977969 
   42000   -1.9888692    526.31579   0.33670992 
   44000   -2.0557216    526.31579   0.35722561 
   46000   -1.8501007    526.31579   0.34141235 
   48000   -1.9581785    526.31579   0.36955056 
   50000    -1.780217    526.31579   0.35291777 
   52000   -1.7404257    526.31579    0.3587635 
   54000   -1.7698842    526.31579   0.37811371 
   56000   -1.7557179    526.31579   0.38865542 
   58000   -1.6201873    526.31579   0.38062779 
   60000   -1.5411811    526.31579   0.38425262 
   62000   -1.6363845    526.31579   0.40802678 
   64000   -1.4235617    526.31579   0.39130822 
   66000   -1.6150005    526.31579    0.4299304 
   68000   -1.4439576    526.31579    0.4191951 
   70000   -1.4564175    526.31579   0.43167632 
   72000   -1.3223423    526.31579   0.42734491 
   74000   -1.2776317    526.31579   0.43266562 
   76000    -1.309247    526.31579   0.44902859 
   78000   -1.1642402    526.31579   0.43783185 
   80000   -1.2465273    526.31579   0.46237523 
   82000    -1.135702    526.31579   0.46285326 
   84000   -1.0661785    526.31579   0.46291579 
   86000    -1.206255    526.31579   0.49273101 
   88000  -0.88056642    526.31579   0.46151908 
   90000   -1.0917802    526.31579   0.50202524 
   92000   -0.7416277    526.31579   0.46413714 
   94000  -0.80414139    526.31579   0.48202918 
   96000  -0.70067666    526.31579   0.47616855 
   98000  -0.70710905    526.31579    0.4905305 
  100000  -0.74904692    526.31579   0.50030534 
  102000  -0.76983726    526.31579   0.51831551 
  104000  -0.71491218    526.31579   0.52059452 
  106000  -0.66659433    526.31579   0.51551032 
  108000  -0.49502322    526.31579   0.49809107 
  110000    -0.742743    526.31579   0.54190875 
  112000  -0.57498887    526.31579   0.52075421 
  114000  -0.53453442    526.31579   0.52178746 
  116000  -0.52678459    526.31579   0.52205913 
  118000  -0.49982741    526.31579   0.52343398 
  120000  -0.51720335    526.31579   0.53320161 
  122000  -0.43854889    526.31579   0.52058473 
  124000  -0.48289223    526.31579   0.52661152 
  126000  -0.60358148    526.31579   0.54809569 
  128000   -0.5289952    526.31579   0.53312651 
  130000  -0.58404341    526.31579   0.54279749 
  132000  -0.56245995    526.31579    0.5395748 
  134000  -0.41294064    526.31579   0.51531867 
  136000   -0.4432904    526.31579   0.51713531 
  138000   -0.4434498    526.31579   0.51210685 
  140000  -0.55066945    526.31579   0.51892641 
  142000  -0.57991014    526.31579   0.51862406 
  144000  -0.66622374    526.31579   0.52964536 
  146000  -0.54705103    526.31579   0.50795619 
  148000  -0.66148328    526.31579   0.51419959 
  150000  -0.82392959    526.31579   0.52489819 
  152000  -0.65029619    526.31579   0.49797837 
  154000  -0.77205854    526.31579   0.50629909 
  156000  -0.85441517    526.31579   0.51251163 
  158000  -0.95026043    526.31579   0.51683817 
  160000  -0.99796652    526.31579   0.51902079 
  162000  -0.84071965    526.31579   0.48929559 
  164000  -0.78130009    526.31579   0.47971709 
  166000  -0.81336664    526.31579   0.47512496 
  168000  -0.81092975    526.31579   0.47025495 
  170000  -0.91030138    526.31579   0.48013604 
  172000  -0.90709446    526.31579   0.47653723 
  174000  -0.87594357    526.31579    0.4687232 
  176000  -0.99095931    526.31579   0.47968543 
  178000  -0.89600916    526.31579    0.4660011 
  180000  -0.87674982    526.31579   0.45884758 
  182000   -1.1141017    526.31579   0.49284948 
  184000  -0.90429966    526.31579   0.46534965 
  186000  -0.96497814    526.31579   0.47115924 
  188000  -0.92526811    526.31579   0.46491728 
  190000   -1.1611122    526.31579   0.49983251 
  192000   -1.0556162    526.31579   0.48608086 
  194000   -0.9133139    526.31579   0.46386756 
  196000   -0.8192872    526.31579   0.45905229 
  198000  -0.84310675    526.31579   0.46385722 
  200000  -0.96790613    526.31579   0.48087806 
  202000   -0.8106235    526.31579   0.46350893 
  204000  -0.84984414    526.31579   0.47506121 
  206000  -0.78639578    526.31579   0.46826179 
  208000  -0.91038345    526.31579   0.49274487 
  210000  -0.79182596    526.31579   0.48013074 
  212000  -0.89293672    526.31579   0.49705981 
  214000  -0.83745776    526.31579   0.49316331 
  216000  -0.68413307    526.31579   0.48257574 
  218000  -0.78068072    526.31579   0.49598649 
  220000  -0.80581831    526.31579   0.50888386 
  222000  -0.81367122    526.31579   0.51387573 
  224000  -0.83747034    526.31579   0.52206634 
  226000  -0.64199229    526.31579   0.50066851 
  228000  -0.51719173    526.31579   0.48548476 
  230000  -0.71427714    526.31579   0.51924878 
  232000  -0.58364731    526.31579   0.50451784 
  234000  -0.61402111    526.31579   0.51042634 
  236000  -0.80966298    526.31579   0.53890003 
  238000  -0.62459019    526.31579   0.51733916 
  240000  -0.73928108    526.31579   0.53791231 
  242000  -0.71312498    526.31579   0.53188672 
  244000  -0.56924133    526.31579   0.51609575 
  246000  -0.64655345    526.31579   0.52764035 
  248000  -0.45598333    526.31579   0.49738311 
  250000   -0.5864175    526.31579   0.51812661 
  252000   -0.5267977    526.31579   0.50391235 
  254000  -0.61354887    526.31579   0.52001526 
  256000  -0.74539507    526.31579    0.5341594 
  258000  -0.72624418    526.31579   0.52324294 
  260000  -0.78808724    526.31579   0.53477451 
  262000  -0.68671805    526.31579   0.51368419 
  264000  -0.85314617    526.31579   0.53689984 
  266000  -0.68446264    526.31579   0.50596943 
  268000  -0.70175636    526.31579     0.511669 
  270000  -0.69115423    526.31579   0.49879918 
  272000  -0.72032988    526.31579   0.50229613 
  274000  -0.63634751    526.31579   0.49290152 
  276000  -0.73659151    526.31579    0.4930893 
  278000  -0.85238105    526.31579   0.51104632 
  280000   -0.7318017    526.31579   0.48613668 
  282000  -0.81696367    526.31579    0.4912662 
  284000   -1.0082552    526.31579   0.51271541 
  286000  -0.86089248    526.31579    0.4889525 
  288000  -0.68551311    526.31579   0.46509073 
  290000  -0.97222321    526.31579   0.50540101 
  292000   -1.0648848    526.31579   0.51132797 
  294000  -0.78570402    526.31579   0.46464109 
  296000   -1.0853996    526.31579   0.50559258 
  298000   -1.0632848    526.31579   0.50270594 
  300000  -0.85272427    526.31579   0.47186754 
  302000  -0.96499434    526.31579   0.48592177 
  304000  -0.94076936    526.31579   0.48381092 
  306000   -1.0061348    526.31579      0.49152 
  308000  -0.98205446    526.31579   0.48427127 
  310000    -1.063372    526.31579   0.49814686 
  312000  -0.96782349    526.31579    0.4817172 
  314000  -0.82791145    526.31579   0.46537361 
  316000  -0.97377381    526.31579   0.48935748 
  318000  -0.94172116    526.31579   0.48636413 
  320000  -0.87824799    526.31579   0.47749137 
  322000  -0.86010507    526.31579   0.48122223 
  324000  -0.89669983    526.31579   0.48981328 
  326000  -0.72967158    526.31579   0.46581594 
  328000  -0.71302604    526.31579   0.47245728 
  330000  -0.92120283    526.31579    0.5034331 
  332000  -0.70175818    526.31579   0.47514875 
  334000  -0.75482942    526.31579   0.49142173 
  336000  -0.86065407    526.31579   0.50415124 
  338000  -0.70209485    526.31579   0.49160917 
  340000  -0.68855945    526.31579   0.48890129 
  342000  -0.93238005    526.31579   0.52731422 
  344000  -0.62886856    526.31579   0.49108852 
  346000  -0.74278097    526.31579   0.50458666 
  348000  -0.74352551    526.31579    0.5121688 
  350000  -0.60700739    526.31579   0.49762389 
  352000  -0.61297935    526.31579   0.49764637 
  354000  -0.66015206    526.31579   0.51191599 
  356000  -0.89542366    526.31579   0.54296854 
  358000  -0.67828621    526.31579   0.51561584 
  360000  -0.80215882    526.31579   0.53443998 
  362000  -0.66190771    526.31579    0.5177377 
  364000  -0.69246377    526.31579   0.52346294 
  366000  -0.75564283    526.31579   0.53129791 
  368000  -0.50795222    526.31579   0.50010162 
  370000  -0.72437274    526.31579   0.52501132 
  372000  -0.67881503    526.31579   0.52245977 
  374000  -0.65901018    526.31579   0.51684669 
  376000  -0.65934968    526.31579   0.51490593 
  378000  -0.54227307    526.31579   0.49544974 
  380000   -0.6091809    526.31579   0.50396919 
  382000  -0.70925963    526.31579   0.51261257 
  384000  -0.68358244    526.31579   0.50246716 
  386000  -0.67271091    526.31579   0.50501539 
  388000  -0.69842043    526.31579    0.5018175 
  390000  -0.60321506    526.31579    0.4892596 
  392000  -0.74734382    526.31579   0.49958339 
  394000  -0.85168697    526.31579   0.51310701 
  396000  -0.74172156    526.31579   0.49691721 
  398000  -0.72531085    526.31579   0.48364794 
  400000  -0.85115979    526.31579   0.49759805 
  402000   -0.7673173    526.31579   0.48280584 
  404000  -0.97548121    526.31579   0.51269546 
  406000   -1.0012313    526.31579   0.51237396 
  408000  -0.98360142    526.31579   0.50559343 
  410000  -0.83552445    526.31579   0.48261968 
  412000  -0.81116105    526.31579   0.47868443 
  414000   -1.1150134    526.31579   0.52050561 
  416000  -0.94173218    526.31579   0.49140983 
  418000  -0.93256534    526.31579    0.4891241 
  420000    -1.067356    526.31579   0.50518509 
  422000  -0.96779621    526.31579   0.49178294 
  424000  -0.88704057    526.31579   0.47893044 
  426000  -0.81669794    526.31579   0.47333056 
  428000  -0.86282996    526.31579   0.48109707 
  430000  -0.98357439    526.31579   0.49298408 
  432000   -1.0021486    526.31579    0.4966038 
  434000  -0.86628486    526.31579   0.48151919 
  436000  -0.97167786    526.31579   0.49658841 
  438000   -1.0044596    526.31579   0.49951074 
  440000  -0.79760748    526.31579   0.47591081 
  442000  -0.89933481    526.31579   0.49230439 
  444000   -0.9080617    526.31579     0.497578 
  446000   -0.8128049    526.31579   0.48666834 
  448000  -0.85505694    526.31579   0.49519919 
  450000  -0.82458677    526.31579   0.49716663 
  452000  -0.83133361    526.31579   0.49789946 
  454000  -0.78704225    526.31579   0.50068003 
  456000  -0.85265169    526.31579   0.51220196 
  458000  -0.72496119    526.31579   0.49849118 
  460000  -0.81739221    526.31579   0.51583227 
  462000  -0.77675181    526.31579   0.50396116 
  464000  -0.71995329    526.31579   0.50546357 
  466000  -0.57543304    526.31579   0.49454772 
  468000  -0.92926371    526.31579   0.53896309 
  470000  -0.62302651    526.31579   0.50550429 
  472000  -0.60188615    526.31579   0.50150806 
  474000  -0.73380219    526.31579   0.51953579 
  476000   -0.9108352    526.31579   0.54529617 
  478000  -0.65818582    526.31579   0.51154096 
  480000  -0.50747409    526.31579   0.49065999 
  482000  -0.68236029    526.31579   0.51699208 
  484000  -0.57362079    526.31579    0.5037744 
  486000  -0.72663385    526.31579   0.51939886 
  488000  -0.74520737    526.31579   0.52577741 
  490000  -0.87507093    526.31579   0.53922126 
  492000  -0.67695331    526.31579    0.5082658 
  494000  -0.81415423    526.31579    0.5272637 
  496000  -0.85663272    526.31579   0.53380502 
  498000   -0.6849574    526.31579   0.50471196 
  500000   -0.6137306    526.31579    0.4884149 
Loop time of 188.643 on 1 procs for 500000 steps with 500 atoms

Performance: 1145019.545 tau/day, 2650.508 timesteps/s
94.3% CPU use with 1 MPI tasks x no OpenMP threads

MPI task timing breakdown:
Section |  min time  |  avg time  |  max time  |%varavg| %total
---------------------------------------------------------------
Pair    | 151        | 151        | 151        |   0.0 | 80.04
Neigh   | 25.85      | 25.85      | 25.85      |   nan | 13.70
Comm    | 6.0322     | 6.0322     | 6.0322     |   0.0 |  3.20
Output  | 0.022022   | 0.022022   | 0.022022   |   0.0 |  0.01
Modify  | 4.5702     | 4.5702     | 4.5702     |   0.0 |  2.42
Other   |            | 1.17       |            |       |  0.62

Nlocal:    500 ave 500 max 500 min
Histogram: 1 0 0 0 0 0 0 0 0 0
Nghost:    1956 ave 1956 max 1956 min
Histogram: 1 0 0 0 0 0 0 0 0 0
Neighs:    20569 ave 20569 max 20569 min
Histogram: 1 0 0 0 0 0 0 0 0 0

Total # of neighbors = 20569
Ave neighs/atom = 41.138
Neighbor list builds = 25000
Dangerous builds not checked
Total wall time: 0:03:08
