LAMMPS (19 Oct 2016)
# equation of state for LJ

variable temp equal 0.5
variable rho  equal 0.83

units lj
atom_style atomic

lattice    fcc ${rho}
lattice    fcc 0.83
Lattice spacing in x,y,z = 1.68912 1.68912 1.68912
region box block 0 5 0 5 0 5
create_box 1 box
Created orthogonal box = (0 0 0) to (8.4456 8.4456 8.4456)
  1 by 1 by 1 MPI processor grid
create_atoms 1 box
Created 500 atoms
mass       1 1.0

pair_style lj/cut 2.5
pair_coeff 1 1 1.0 1.0 2.5

velocity   all create ${temp} 87287
velocity   all create 0.5 87287

neighbor   0.3 bin
neigh_modify every 20 delay 0 check no

fix        1 all nvt temp ${temp} ${temp} 100
fix        1 all nvt temp 0.5 ${temp} 100
fix        1 all nvt temp 0.5 0.5 100
dump       1 all custom 70000 dump_t${temp}_r${rho}.lammpstrj id type x y z
dump       1 all custom 70000 dump_t0.5_r${rho}.lammpstrj id type x y z
dump       1 all custom 70000 dump_t0.5_r0.83.lammpstrj id type x y z
thermo     2000
thermo_style  custom step press vol temp
thermo_modify flush yes

run 500000
Neighbor list info ...
  1 neighbor list requests
  update every 20 steps, delay 0 steps, check no
  max neighbors/atom: 2000, page size: 100000
  master list distance cutoff = 2.8
  ghost atom cutoff = 2.8
  binsize = 1.4 -> bins = 7 7 7
Memory usage per processor = 3.32306 Mbytes
Step Press Volume Temp 
       0   -5.8415302    602.40964          0.5 
    2000   -3.8225761    602.40964   0.27286616 
    4000   -3.8035901    602.40964   0.27361849 
    6000   -3.7095674    602.40964   0.26432752 
    8000   -3.7629408    602.40964   0.27825707 
   10000   -3.6213415    602.40964   0.27023825 
   12000   -3.7135263    602.40964   0.28743477 
   14000   -3.7008219    602.40964   0.29077178 
   16000   -3.6893131    602.40964   0.29376691 
   18000   -3.6846313    602.40964   0.30675102 
   20000   -3.6379874    602.40964   0.30230997 
   22000   -3.6443546    602.40964   0.31552053 
   24000   -3.4696734    602.40964   0.29860551 
   26000   -3.7128294    602.40964   0.33803551 
   28000   -3.3950796    602.40964   0.31146691 
   30000   -3.4987551    602.40964   0.34533832 
   32000   -3.4523817    602.40964   0.33252296 
   34000   -3.3361071    602.40964    0.3420611 
   36000   -3.3104526    602.40964   0.34449969 
   38000   -3.2675179    602.40964    0.3492006 
   40000   -3.1699044    602.40964     0.343762 
   42000   -3.2275542    602.40964   0.36103697 
   44000   -3.0803294    602.40964   0.35897323 
   46000   -3.1765381    602.40964   0.38075962 
   48000   -3.1489374    602.40964   0.38786612 
   50000   -3.0235013    602.40964   0.38531788 
   52000   -3.0480268    602.40964   0.39645157 
   54000   -3.0365124    602.40964   0.40033131 
   56000   -2.8523476    602.40964   0.39374189 
   58000   -2.7999119    602.40964   0.40175433 
   60000   -2.8283853    602.40964    0.4151838 
   62000     -2.64439    602.40964   0.40274609 
   64000   -2.9991163    602.40964   0.45431559 
   66000   -2.5038111    602.40964   0.41285615 
   68000   -2.6955648    602.40964   0.44547819 
   70000   -2.5407298    602.40964   0.43770347 
   72000   -2.5630472    602.40964   0.45094857 
   74000   -2.4259524    602.40964    0.4481878 
   76000   -2.6209265    602.40964   0.47872335 
   78000   -2.4413573    602.40964    0.4730819 
   80000   -2.3189039    602.40964    0.4718099 
   82000   -2.3648063    602.40964   0.48175417 
   84000   -2.3208973    602.40964   0.48851162 
   86000   -2.2887101    602.40964   0.48364764 
   88000   -2.0515125    602.40964   0.47841476 
   90000   -2.2090798    602.40964   0.49536372 
   92000   -2.0595637    602.40964    0.4829091 
   94000   -2.0375234    602.40964   0.50232119 
   96000   -2.0032163    602.40964   0.50186985 
   98000   -1.9425822    602.40964   0.49522711 
  100000   -1.9116163    602.40964   0.49576026 
  102000   -1.8741385    602.40964   0.50698464 
  104000   -1.6568733    602.40964   0.49065444 
  106000    -1.859076    602.40964   0.52549763 
  108000   -2.0474739    602.40964   0.54288744 
  110000   -1.8603474    602.40964    0.5225019 
  112000   -1.7995596    602.40964   0.50996419 
  114000    -1.884857    602.40964   0.53728819 
  116000   -2.0126862    602.40964   0.54971026 
  118000   -1.6807522    602.40964   0.51680395 
  120000   -1.8668312    602.40964    0.5465825 
  122000   -1.7627038    602.40964   0.52302584 
  124000   -1.8678531    602.40964   0.52002725 
  126000   -1.6918405    602.40964   0.52344869 
  128000   -1.7184456    602.40964   0.52904572 
  130000    -1.349648    602.40964   0.47415943 
  132000   -1.0672615    602.40964   0.44543795 
  134000   -1.2226399    602.40964   0.46716729 
  136000   -1.1554738    602.40964   0.45433615 
  138000    -1.067263    602.40964   0.44462202 
  140000  -0.98585341    602.40964   0.44303687 
  142000    -1.154106    602.40964   0.45416115 
  144000   -1.0701918    602.40964   0.46341096 
  146000   -1.2204235    602.40964   0.46607002 
  148000  -0.88934062    602.40964   0.44161205 
  150000   -1.0597659    602.40964   0.47700786 
  152000  -0.97448148    602.40964    0.4594955 
  154000  -0.99163617    602.40964   0.47384433 
  156000   -1.0401625    602.40964   0.49144166 
  158000   -1.1376718    602.40964   0.49581543 
  160000  -0.90320411    602.40964   0.48579335 
  162000  -0.85826437    602.40964   0.49038575 
  164000  -0.74450452    602.40964   0.47710706 
  166000  -0.67552372    602.40964   0.48385195 
  168000  -0.73638101    602.40964   0.49181679 
  170000  -0.75572502    602.40964   0.49359526 
  172000  -0.60769718    602.40964   0.49607454 
  174000   -0.6882705    602.40964   0.51681483 
  176000  -0.79448069    602.40964    0.5177564 
  178000  -0.65770317    602.40964   0.52284776 
  180000  -0.64479995    602.40964   0.51023896 
  182000  -0.67634502    602.40964   0.51662623 
  184000  -0.54379266    602.40964   0.52060889 
  186000  -0.74242363    602.40964   0.53148273 
  188000  -0.66351668    602.40964   0.54283392 
  190000  -0.63390497    602.40964   0.52803167 
  192000   -0.5625194    602.40964   0.52582449 
  194000  -0.64742507    602.40964   0.53687912 
  196000  -0.74106152    602.40964   0.53505082 
  198000  -0.73726794    602.40964   0.54632464 
  200000  -0.45714934    602.40964   0.51746313 
  202000  -0.54820113    602.40964   0.52819578 
  204000  -0.56316147    602.40964   0.51716801 
  206000  -0.61437749    602.40964   0.51228192 
  208000   -0.4479158    602.40964   0.49841258 
  210000  -0.73762148    602.40964   0.54119072 
  212000  -0.61431836    602.40964   0.51868668 
  214000  -0.48828949    602.40964   0.50196172 
  216000  -0.70629596    602.40964   0.52546036 
  218000  -0.72463996    602.40964   0.51091708 
  220000  -0.64743133    602.40964   0.49922983 
  222000  -0.81241943    602.40964   0.52466345 
  224000  -0.69739822    602.40964   0.49292972 
  226000  -0.63732615    602.40964   0.49129434 
  228000  -0.83295365    602.40964   0.50689324 
  230000   -0.9941412    602.40964   0.52577192 
  232000  -0.89272197    602.40964   0.51645327 
  234000  -0.76734536    602.40964   0.47623518 
  236000  -0.89343063    602.40964   0.49733297 
  238000  -0.82645614    602.40964    0.4870333 
  240000  -0.94301217    602.40964   0.48404547 
  242000  -0.94903431    602.40964   0.48789744 
  244000  -0.95619103    602.40964   0.49505155 
  246000  -0.89686371    602.40964   0.47220153 
  248000   -1.1259045    602.40964    0.5061472 
  250000  -0.91496792    602.40964   0.48390964 
  252000  -0.91290805    602.40964   0.47759595 
  254000  -0.84678383    602.40964   0.46462376 
  256000  -0.95241902    602.40964   0.48114353 
  258000  -0.87475085    602.40964   0.47912758 
  260000   -1.0853222    602.40964   0.49854145 
  262000   -0.9373896    602.40964   0.46991914 
  264000   -0.7716718    602.40964   0.45719976 
  266000  -0.92158408    602.40964    0.4851865 
  268000  -0.83650869    602.40964   0.46493545 
  270000   -1.0188312    602.40964   0.49160366 
  272000  -0.77996778    602.40964   0.47663235 
  274000  -0.91250374    602.40964   0.49528209 
  276000  -0.85967444    602.40964   0.49013982 
  278000  -0.89358526    602.40964   0.49066795 
  280000  -0.64903475    602.40964   0.46209419 
  282000   -0.7386098    602.40964   0.48677037 
  284000  -0.70387087    602.40964   0.47920489 
  286000  -0.82395164    602.40964   0.50761424 
  288000  -0.72459206    602.40964   0.49370631 
  290000  -0.56991875    602.40964   0.48594302 
  292000  -0.73657023    602.40964   0.50479679 
  294000  -0.77449034    602.40964   0.51942043 
  296000  -0.74957963    602.40964   0.50800698 
  298000  -0.51493783    602.40964   0.49965554 
  300000   -0.8253322    602.40964   0.52504918 
  302000  -0.55910682    602.40964   0.50171245 
  304000  -0.70897381    602.40964   0.52190781 
  306000  -0.59205984    602.40964   0.50963155 
  308000  -0.63422114    602.40964   0.50809817 
  310000  -0.59795373    602.40964   0.52335305 
  312000  -0.67178707    602.40964   0.51894916 
  314000  -0.60663151    602.40964   0.50228855 
  316000  -0.67147362    602.40964   0.51475288 
  318000  -0.60199167    602.40964   0.50909148 
  320000    -0.639048    602.40964   0.52407911 
  322000  -0.49592576    602.40964   0.50358344 
  324000  -0.61223543    602.40964   0.50937618 
  326000  -0.53251815    602.40964   0.50470495 
  328000  -0.56845314    602.40964   0.50162567 
  330000  -0.48998669    602.40964   0.49183714 
  332000  -0.65308671    602.40964   0.50446372 
  334000  -0.65511191    602.40964    0.5049961 
  336000  -0.63122421    602.40964   0.50979826 
  338000  -0.68827515    602.40964   0.50312736 
  340000  -0.68688927    602.40964   0.49143434 
  342000  -0.71904547    602.40964   0.50181314 
  344000  -0.82490558    602.40964   0.50084573 
  346000  -0.75472229    602.40964   0.50768863 
  348000  -0.83195896    602.40964   0.51462287 
  350000  -0.75641924    602.40964   0.50242344 
  352000  -0.70080746    602.40964   0.48137339 
  354000  -0.66104992    602.40964   0.46957912 
  356000  -0.86869893    602.40964   0.49288883 
  358000   -1.0665093    602.40964   0.51834548 
  360000  -0.84818535    602.40964   0.48583583 
  362000   -0.9165417    602.40964   0.47921699 
  364000    -1.047827    602.40964   0.50021471 
  366000   -1.0251961    602.40964   0.50777227 
  368000   -1.0179313    602.40964   0.50333533 
  370000   -0.9326917    602.40964    0.4760512 
  372000  -0.77766484    602.40964   0.46512884 
  374000  -0.83151691    602.40964   0.48122729 
  376000  -0.92304199    602.40964   0.49445445 
  378000  -0.82153915    602.40964   0.47455826 
  380000  -0.80769632    602.40964   0.47026845 
  382000  -0.77579887    602.40964   0.46810176 
  384000  -0.94920897    602.40964    0.4824422 
  386000  -0.94907232    602.40964   0.49243255 
  388000  -0.82716899    602.40964   0.48858824 
  390000    -1.022957    602.40964   0.51023117 
  392000  -0.93207906    602.40964    0.4967214 
  394000  -0.89294723    602.40964   0.48681234 
  396000  -0.98533521    602.40964   0.50533825 
  398000   -0.7456867    602.40964    0.5015164 
  400000  -0.72150667    602.40964   0.49284545 
  402000  -0.86857899    602.40964   0.50370058 
  404000  -0.86671184    602.40964   0.50679937 
  406000  -0.87869874    602.40964   0.50940591 
  408000  -0.69369701    602.40964   0.50170388 
  410000  -0.83214388    602.40964   0.51611292 
  412000  -0.71786143    602.40964   0.51328663 
  414000  -0.56152495    602.40964   0.50599649 
  416000  -0.88554198    602.40964   0.52315451 
  418000  -0.73388145    602.40964   0.50904775 
  420000  -0.76348576    602.40964   0.52577762 
  422000  -0.76182147    602.40964   0.52329867 
  424000  -0.60917537    602.40964   0.50752878 
  426000  -0.55340152    602.40964   0.49891667 
  428000   -0.5190385    602.40964   0.49076313 
  430000  -0.64834373    602.40964    0.5123005 
  432000  -0.59075073    602.40964   0.50598532 
  434000  -0.82792568    602.40964   0.53733777 
  436000  -0.65583607    602.40964   0.52405858 
  438000  -0.84052591    602.40964   0.52480565 
  440000  -0.51480235    602.40964   0.49267483 
  442000  -0.71547695    602.40964   0.52437605 
  444000  -0.66864127    602.40964   0.51259359 
  446000    -0.848456    602.40964   0.51813476 
  448000  -0.57937038    602.40964   0.48990521 
  450000   -0.6110181    602.40964   0.48447548 
  452000  -0.67031408    602.40964   0.49566866 
  454000   -0.6442158    602.40964    0.4937328 
  456000  -0.88492733    602.40964   0.51191708 
  458000  -0.70188847    602.40964   0.48252009 
  460000  -0.94660349    602.40964   0.51736167 
  462000  -0.69141883    602.40964   0.48356306 
  464000  -0.64648643    602.40964   0.47333802 
  466000  -0.76740779    602.40964   0.49134004 
  468000   -0.8829498    602.40964   0.48383161 
  470000  -0.97873179    602.40964    0.5031869 
  472000  -0.77078614    602.40964   0.46414041 
  474000  -0.83338194    602.40964   0.47209468 
  476000  -0.86425528    602.40964   0.47500708 
  478000   -1.0758495    602.40964   0.48715364 
  480000  -0.84646393    602.40964   0.47498231 
  482000  -0.90496015    602.40964   0.47527789 
  484000  -0.75268278    602.40964   0.45718322 
  486000  -0.79115025    602.40964      0.45314 
  488000  -0.91192614    602.40964   0.47772275 
  490000  -0.92354427    602.40964    0.4880764 
  492000  -0.94224316    602.40964    0.4934434 
  494000  -0.99943786    602.40964   0.48189683 
  496000  -0.83479063    602.40964   0.47742029 
  498000  -0.64774078    602.40964    0.4599992 
  500000   -0.9918185    602.40964   0.48962722 
Loop time of 173.369 on 1 procs for 500000 steps with 500 atoms

Performance: 1245897.034 tau/day, 2884.021 timesteps/s
96.8% CPU use with 1 MPI tasks x no OpenMP threads

MPI task timing breakdown:
Section |  min time  |  avg time  |  max time  |%varavg| %total
---------------------------------------------------------------
Pair    | 141.96     | 141.96     | 141.96     |   0.0 | 81.89
Neigh   | 20.121     | 20.121     | 20.121     |   0.0 | 11.61
Comm    | 5.7037     | 5.7037     | 5.7037     |   0.0 |  3.29
Output  | 0.029315   | 0.029315   | 0.029315   |   0.0 |  0.02
Modify  | 4.482      | 4.482      | 4.482      |   0.0 |  2.59
Other   |            | 1.069      |            |       |  0.62

Nlocal:    500 ave 500 max 500 min
Histogram: 1 0 0 0 0 0 0 0 0 0
Nghost:    1794 ave 1794 max 1794 min
Histogram: 1 0 0 0 0 0 0 0 0 0
Neighs:    18278 ave 18278 max 18278 min
Histogram: 1 0 0 0 0 0 0 0 0 0

Total # of neighbors = 18278
Ave neighs/atom = 36.556
Neighbor list builds = 25000
Dangerous builds not checked
Total wall time: 0:02:53
