LAMMPS (19 Oct 2016)
# equation of state for LJ

variable temp equal 0.5
variable rho  equal 0.903

units lj
atom_style atomic

lattice    fcc ${rho}
lattice    fcc 0.903
Lattice spacing in x,y,z = 1.64232 1.64232 1.64232
region box block 0 5 0 5 0 5
create_box 1 box
Created orthogonal box = (0 0 0) to (8.21159 8.21159 8.21159)
  1 by 1 by 1 MPI processor grid
create_atoms 1 box
Created 500 atoms
mass       1 1.0

pair_style lj/cut 2.5
pair_coeff 1 1 1.0 1.0 2.5

velocity   all create ${temp} 87287
velocity   all create 0.5 87287

neighbor   0.3 bin
neigh_modify every 20 delay 0 check no

fix        1 all nvt temp ${temp} ${temp} 100
fix        1 all nvt temp 0.5 ${temp} 100
fix        1 all nvt temp 0.5 0.5 100
dump       1 all custom 70000 dump_t${temp}_r${rho}.lammpstrj id type x y z
dump       1 all custom 70000 dump_t0.5_r${rho}.lammpstrj id type x y z
dump       1 all custom 70000 dump_t0.5_r0.903.lammpstrj id type x y z
thermo     2000
thermo_style  custom step press vol temp
thermo_modify flush yes

run 500000
Neighbor list info ...
  1 neighbor list requests
  update every 20 steps, delay 0 steps, check no
  max neighbors/atom: 2000, page size: 100000
  master list distance cutoff = 2.8
  ghost atom cutoff = 2.8
  binsize = 1.4 -> bins = 6 6 6
Memory usage per processor = 3.32155 Mbytes
Step Press Volume Temp 
       0   -5.3453788    553.70986          0.5 
    2000   -3.5302569    553.70986   0.26129551 
    4000   -3.5477818    553.70986   0.26854021 
    6000   -3.4655277    553.70986   0.26704659 
    8000   -3.5002505    553.70986   0.27541279 
   10000   -3.4393792    553.70986   0.27409633 
   12000   -3.3731963    553.70986   0.27486909 
   14000   -3.3282456    553.70986   0.27417362 
   16000   -3.3573312    553.70986   0.28711638 
   18000   -3.3926025    553.70986   0.29798066 
   20000   -3.3648097    553.70986    0.3009871 
   22000   -3.2586071    553.70986   0.29874408 
   24000   -3.2290778    553.70986   0.30250056 
   26000   -3.2458397    553.70986    0.3126596 
   28000   -3.1378961    553.70986    0.3102577 
   30000   -3.3078933    553.70986   0.34131996 
   32000   -3.0989264    553.70986   0.32569611 
   34000   -3.0675749    553.70986   0.32874695 
   36000   -3.0007276    553.70986   0.32979415 
   38000   -2.9358607    553.70986   0.33316642 
   40000   -2.9240106    553.70986   0.34523367 
   42000   -2.7647511    553.70986   0.33319906 
   44000   -2.8356001    553.70986   0.35206196 
   46000   -2.7248185    553.70986   0.35044761 
   48000   -2.7034517    553.70986   0.35824292 
   50000   -2.6100737    553.70986    0.3609032 
   52000   -2.6925463    553.70986   0.38336489 
   54000   -2.5469982    553.70986   0.37329561 
   56000    -2.562186    553.70986   0.38465808 
   58000   -2.4803336    553.70986   0.38585214 
   60000   -2.5782098    553.70986   0.41441918 
   62000   -2.5158911    553.70986   0.41577972 
   64000   -2.4053073    553.70986   0.41976685 
   66000   -2.1567107    553.70986   0.39680875 
   68000   -2.2151156    553.70986   0.42040633 
   70000   -2.1543591    553.70986   0.41789929 
   72000   -2.0898224    553.70986   0.42376896 
   74000   -2.2041109    553.70986   0.44658832 
   76000   -2.2593976    553.70986   0.46626819 
   78000    -1.936143    553.70986   0.43915834 
   80000    -2.038358    553.70986   0.46475738 
   82000   -2.0406329    553.70986   0.46733058 
   84000   -1.9374173    553.70986   0.46898623 
   86000   -1.7656929    553.70986   0.46319114 
   88000   -1.8787536    553.70986   0.48353411 
   90000   -1.8286518    553.70986   0.48370999 
   92000   -1.9145022    553.70986   0.50957065 
   94000   -1.4207928    553.70986    0.4567218 
   96000   -1.7592115    553.70986   0.50774115 
   98000   -1.6547538    553.70986   0.50214699 
  100000    -1.720946    553.70986   0.52038396 
  102000   -1.7827109    553.70986    0.5314817 
  104000   -1.6565263    553.70986   0.52749425 
  106000    -1.526755    553.70986   0.51316418 
  108000   -1.5448339    553.70986    0.5232601 
  110000   -1.5287442    553.70986    0.5283285 
  112000   -1.5053196    553.70986   0.53153216 
  114000   -1.4376787    553.70986   0.52233727 
  116000   -1.4655532    553.70986   0.53202175 
  118000   -1.4840355    553.70986     0.536196 
  120000   -1.4430559    553.70986    0.5322835 
  122000   -1.4262407    553.70986   0.53713304 
  124000   -1.6963081    553.70986   0.56862289 
  126000   -1.4991309    553.70986   0.54498714 
  128000   -1.2826086    553.70986   0.51306836 
  130000   -1.5490527    553.70986   0.55353435 
  132000   -1.2959532    553.70986   0.51455246 
  134000   -1.3028497    553.70986   0.51209138 
  136000   -1.5415185    553.70986   0.53934221 
  138000   -1.4789829    553.70986   0.53021912 
  140000    -1.557058    553.70986   0.53080616 
  142000   -1.6285342    553.70986   0.53358851 
  144000   -1.4880213    553.70986   0.50512127 
  146000   -1.4446477    553.70986   0.48915299 
  148000   -1.5719811    553.70986   0.50715929 
  150000   -1.6703731    553.70986   0.51291183 
  152000   -1.7585306    553.70986   0.51856583 
  154000   -1.7606093    553.70986   0.51459056 
  156000   -1.8138563    553.70986   0.51530738 
  158000   -1.6982856    553.70986   0.49011339 
  160000   -1.7401772    553.70986   0.49525018 
  162000   -1.6641683    553.70986   0.47671253 
  164000   -1.9007953    553.70986     0.500294 
  166000   -1.7062338    553.70986   0.46687817 
  168000   -1.6608232    553.70986   0.45623626 
  170000    -1.804038    553.70986   0.47997004 
  172000   -1.7312657    553.70986   0.46594728 
  174000   -1.8341437    553.70986   0.47404901 
  176000   -1.8078959    553.70986   0.46750204 
  178000   -1.7444907    553.70986   0.45668441 
  180000   -1.9948778    553.70986   0.48780565 
  182000   -1.7957445    553.70986   0.46132132 
  184000   -1.9587286    553.70986   0.48551135 
  186000    -1.931502    553.70986   0.48012159 
  188000     -1.79744    553.70986   0.46331983 
  190000   -1.7130611    553.70986   0.45631348 
  192000   -1.9085007    553.70986   0.48068599 
  194000   -1.8322602    553.70986   0.47390817 
  196000   -1.8996043    553.70986   0.48327883 
  198000    -1.858094    553.70986   0.48015353 
  200000   -1.8829724    553.70986   0.49113421 
  202000   -1.8328391    553.70986   0.48737268 
  204000   -1.7623912    553.70986   0.48888002 
  206000    -1.651361    553.70986   0.46811019 
  208000    -1.849262    553.70986   0.49959708 
  210000   -1.7290008    553.70986   0.48753563 
  212000   -1.8205783    553.70986   0.50614295 
  214000   -1.8197696    553.70986    0.5142529 
  216000   -1.5412415    553.70986   0.47812379 
  218000   -1.5806026    553.70986   0.48759587 
  220000   -1.6513942    553.70986   0.50429925 
  222000   -1.5965859    553.70986   0.50316561 
  224000   -1.6940749    553.70986   0.52002017 
  226000   -1.4738101    553.70986   0.49725001 
  228000    -1.702601    553.70986   0.52829077 
  230000   -1.7363344    553.70986   0.53452779 
  232000   -1.5107881    553.70986   0.50751165 
  234000    -1.565845    553.70986    0.5198068 
  236000   -1.5217677    553.70986   0.51245613 
  238000   -1.4763588    553.70986   0.51217036 
  240000   -1.3323351    553.70986   0.50029048 
  242000   -1.6321367    553.70986   0.53296528 
  244000   -1.5421131    553.70986   0.52401254 
  246000   -1.4624758    553.70986   0.51033104 
  248000   -1.4978713    553.70986   0.51764324 
  250000   -1.6018987    553.70986   0.53383555 
  252000    -1.469188    553.70986   0.51072132 
  254000   -1.4801435    553.70986   0.51296923 
  256000   -1.5639569    553.70986   0.51699265 
  258000   -1.5596787    553.70986   0.51500865 
  260000   -1.7087263    553.70986   0.53217586 
  262000   -1.6704036    553.70986   0.52396139 
  264000   -1.5088155    553.70986    0.4932572 
  266000   -1.6435906    553.70986   0.50422105 
  268000    -1.742964    553.70986   0.52351376 
  270000    -1.441566    553.70986   0.47715054 
  272000   -1.7509797    553.70986   0.50960409 
  274000    -1.480071    553.70986   0.47333253 
  276000   -1.6613443    553.70986   0.49280974 
  278000   -1.7484013    553.70986    0.4993918 
  280000    -1.608474    553.70986   0.47161482 
  282000   -1.8034221    553.70986   0.49742358 
  284000   -1.8338068    553.70986    0.4988926 
  286000   -1.8413137    553.70986   0.49970839 
  288000   -1.7033817    553.70986   0.47518044 
  290000   -1.6806683    553.70986   0.46684559 
  292000   -1.8184728    553.70986   0.48681756 
  294000   -1.7814992    553.70986   0.47724081 
  296000   -1.8745729    553.70986   0.48897268 
  298000   -1.9009805    553.70986   0.49219969 
  300000   -1.6523508    553.70986   0.45809007 
  302000   -1.8224485    553.70986   0.48224129 
  304000   -1.9455072    553.70986   0.49056869 
  306000   -1.8500266    553.70986   0.48137613 
  308000   -1.7071973    553.70986   0.46066452 
  310000   -1.7114025    553.70986   0.46584401 
  312000   -1.8266927    553.70986   0.48193962 
  314000   -1.8132462    553.70986   0.48227174 
  316000   -1.7949388    553.70986   0.48462487 
  318000   -1.7616995    553.70986    0.4822737 
  320000   -1.7142198    553.70986   0.47453128 
  322000   -1.8970718    553.70986   0.50747365 
  324000   -1.6653522    553.70986   0.47384787 
  326000     -1.82445    553.70986   0.49873018 
  328000   -1.6928206    553.70986   0.48679193 
  330000   -1.7174572    553.70986   0.49429158 
  332000   -1.7276895    553.70986   0.49888818 
  334000   -1.7480046    553.70986    0.5068269 
  336000   -1.7597118    553.70986    0.5108824 
  338000   -1.7204645    553.70986   0.51300852 
  340000   -1.7149362    553.70986   0.51003354 
  342000   -1.7221461    553.70986   0.52119795 
  344000   -1.6125874    553.70986   0.51002426 
  346000   -1.6696331    553.70986   0.51990365 
  348000   -1.6797471    553.70986   0.52250119 
  350000   -1.4660084    553.70986   0.49672393 
  352000   -1.6127447    553.70986   0.52328795 
  354000   -1.4728079    553.70986   0.49984325 
  356000   -1.6762579    553.70986   0.53317039 
  358000   -1.6950327    553.70986   0.53199295 
  360000   -1.6323246    553.70986   0.52600441 
  362000   -1.3885759    553.70986   0.49071214 
  364000    -1.611696    553.70986    0.5294379 
  366000   -1.7152155    553.70986    0.5385753 
  368000   -1.5520392    553.70986   0.51660975 
  370000   -1.6977354    553.70986   0.53434465 
  372000   -1.7835447    553.70986   0.54298239 
  374000    -1.580265    553.70986   0.51818556 
  376000   -1.6428341    553.70986   0.51932592 
  378000   -1.5208486    553.70986   0.50306106 
  380000   -1.7232617    553.70986   0.52496784 
  382000   -1.7284014    553.70986   0.52572163 
  384000   -1.6587991    553.70986   0.51056797 
  386000   -1.6305241    553.70986   0.49992062 
  388000   -1.5738299    553.70986   0.49132825 
  390000   -1.6710656    553.70986   0.50103933 
  392000   -1.6850855    553.70986   0.49990622 
  394000   -1.8498984    553.70986   0.51849475 
  396000   -1.6300319    553.70986    0.4827929 
  398000   -1.8421772    553.70986   0.50784671 
  400000   -1.8796138    553.70986   0.51173432 
  402000   -1.7237413    553.70986   0.48693578 
  404000   -1.7991136    553.70986   0.49339604 
  406000   -1.7223299    553.70986   0.48506819 
  408000    -1.849859    553.70986   0.49651304 
  410000   -1.7853431    553.70986   0.48448277 
  412000   -1.9749691    553.70986   0.51335377 
  414000   -1.8839242    553.70986   0.49281254 
  416000    -1.945536    553.70986   0.50308447 
  418000   -1.8789698    553.70986   0.49243028 
  420000    -1.848558    553.70986    0.4939847 
  422000   -1.7009218    553.70986   0.46806047 
  424000   -1.7575581    553.70986   0.47381163 
  426000   -1.7663405    553.70986   0.47803005 
  428000   -1.7341044    553.70986   0.47424648 
  430000   -1.8796279    553.70986   0.49250795 
  432000   -1.8253578    553.70986   0.48722509 
  434000   -1.7041058    553.70986   0.47648928 
  436000   -1.8564449    553.70986   0.49942698 
  438000   -1.8719396    553.70986   0.49988584 
  440000   -1.8359729    553.70986   0.49837109 
  442000   -1.5839329    553.70986   0.46879603 
  444000   -1.7802474    553.70986    0.4987852 
  446000   -1.6777288    553.70986   0.49137905 
  448000   -1.7187124    553.70986   0.49984442 
  450000   -1.6868063    553.70986   0.50046832 
  452000   -1.6921303    553.70986   0.50921499 
  454000   -1.6682462    553.70986   0.49886491 
  456000   -1.6850197    553.70986   0.51634921 
  458000   -1.6135189    553.70986   0.50324242 
  460000   -1.6421399    553.70986   0.51057699 
  462000   -1.7835911    553.70986   0.53103501 
  464000     -1.54495    553.70986   0.50391482 
  466000   -1.4760812    553.70986   0.49682565 
  468000   -1.4843642    553.70986   0.49784414 
  470000   -1.7343231    553.70986   0.53821615 
  472000   -1.6763429    553.70986   0.52892453 
  474000    -1.562475    553.70986   0.51365455 
  476000   -1.6671845    553.70986   0.52873893 
  478000   -1.6251083    553.70986   0.51660376 
  480000   -1.3916467    553.70986   0.49175288 
  482000    -1.727547    553.70986   0.53567545 
  484000   -1.6428638    553.70986   0.51919904 
  486000   -1.6949869    553.70986   0.53253371 
  488000    -1.643111    553.70986   0.52089796 
  490000    -1.652513    553.70986   0.52269714 
  492000   -1.6823411    553.70986   0.51610354 
  494000   -1.6604112    553.70986   0.50880873 
  496000   -1.7369624    553.70986   0.51767397 
  498000   -1.5026899    553.70986   0.48480538 
  500000   -1.8101444    553.70986   0.51916993 
Loop time of 196.467 on 1 procs for 500000 steps with 500 atoms

Performance: 1099422.973 tau/day, 2544.961 timesteps/s
90.0% CPU use with 1 MPI tasks x no OpenMP threads

MPI task timing breakdown:
Section |  min time  |  avg time  |  max time  |%varavg| %total
---------------------------------------------------------------
Pair    | 157.53     | 157.53     | 157.53     |   0.0 | 80.18
Neigh   | 25.738     | 25.738     | 25.738     |   nan | 13.10
Comm    | 6.7117     | 6.7117     | 6.7117     |   0.0 |  3.42
Output  | 0.019208   | 0.019208   | 0.019208   |   0.0 |  0.01
Modify  | 5.1242     | 5.1242     | 5.1242     |   0.0 |  2.61
Other   |            | 1.341      |            |       |  0.68

Nlocal:    500 ave 500 max 500 min
Histogram: 1 0 0 0 0 0 0 0 0 0
Nghost:    1956 ave 1956 max 1956 min
Histogram: 1 0 0 0 0 0 0 0 0 0
Neighs:    19991 ave 19991 max 19991 min
Histogram: 1 0 0 0 0 0 0 0 0 0

Total # of neighbors = 19991
Ave neighs/atom = 39.982
Neighbor list builds = 25000
Dangerous builds not checked
Total wall time: 0:03:16
