LAMMPS (19 Oct 2016)
# equation of state for LJ

variable temp equal 0.5
variable rho  equal 0.4

units lj
atom_style atomic

lattice    fcc ${rho}
lattice    fcc 0.4
Lattice spacing in x,y,z = 2.15443 2.15443 2.15443
region box block 0 5 0 5 0 5
create_box 1 box
Created orthogonal box = (0 0 0) to (10.7722 10.7722 10.7722)
  1 by 1 by 1 MPI processor grid
create_atoms 1 box
Created 500 atoms
mass       1 1.0

pair_style lj/cut 2.5
pair_coeff 1 1 1.0 1.0 2.5

velocity   all create ${temp} 87287
velocity   all create 0.5 87287

neighbor   0.3 bin
neigh_modify every 20 delay 0 check no

fix        1 all nvt temp ${temp} ${temp} 100
fix        1 all nvt temp 0.5 ${temp} 100
fix        1 all nvt temp 0.5 0.5 100
dump       1 all custom 70000 dump_t${temp}_r${rho}.lammpstrj id type x y z
dump       1 all custom 70000 dump_t0.5_r${rho}.lammpstrj id type x y z
dump       1 all custom 70000 dump_t0.5_r0.4.lammpstrj id type x y z
thermo     2000
thermo_style  custom step press vol temp
thermo_modify flush yes

run 500000
Neighbor list info ...
  1 neighbor list requests
  update every 20 steps, delay 0 steps, check no
  max neighbors/atom: 2000, page size: 100000
  master list distance cutoff = 2.8
  ghost atom cutoff = 2.8
  binsize = 1.4 -> bins = 8 8 8
Memory usage per processor = 3.29189 Mbytes
Step Press Volume Temp 
       0     -1.18472         1250          0.5 
    2000  0.011729588         1250    1.0688801 
    4000 -0.078846605         1250    1.0321901 
    6000 -0.034864248         1250    1.0555521 
    8000 -0.064313588         1250   0.96710895 
   10000  0.080195605         1250   0.95366602 
   12000  -0.15890864         1250   0.95477599 
   14000 -0.033538603         1250   0.93206433 
   16000  -0.09673678         1250   0.91609491 
   18000 -0.092615742         1250   0.94406654 
   20000 -0.0072778152         1250   0.88568141 
   22000 -0.049275468         1250   0.89117228 
   24000 -0.021479376         1250   0.85420859 
   26000  -0.07371634         1250   0.88580392 
   28000 -0.020264934         1250   0.85145184 
   30000 -0.042708863         1250   0.91757406 
   32000  0.037538304         1250    0.9271241 
   34000 -0.079799984         1250   0.89743416 
   36000  0.009970726         1250   0.87511547 
   38000   0.11412621         1250   0.87800292 
   40000  -0.02532663         1250   0.86308629 
   42000 -0.023460347         1250   0.80258398 
   44000 -0.070785029         1250   0.84874743 
   46000  -0.01815493         1250    0.8739277 
   48000 -0.063758088         1250    0.7756848 
   50000  0.014882838         1250   0.75631303 
   52000   0.16010937         1250   0.79717816 
   54000 -0.047379326         1250   0.77403932 
   56000  -0.11616739         1250   0.73462757 
   58000 -0.068188902         1250   0.70749356 
   60000  -0.17108721         1250   0.72887094 
   62000 -0.047958384         1250   0.68636444 
   64000  0.045399629         1250   0.74368654 
   66000  -0.18994645         1250   0.69356139 
   68000  -0.16689605         1250   0.69895467 
   70000 -0.035101708         1250   0.71624803 
   72000  0.041417318         1250   0.70564314 
   74000  -0.10156741         1250   0.69068222 
   76000 -0.041046557         1250   0.65528314 
   78000 -0.023670548         1250   0.67638569 
   80000 -0.028346987         1250   0.67350562 
   82000  -0.18734622         1250   0.63768929 
   84000  0.091978777         1250   0.64786207 
   86000 -0.051501475         1250   0.66626622 
   88000  -0.20919506         1250   0.63241256 
   90000 -0.065371402         1250   0.62791041 
   92000 -0.044972573         1250   0.63152898 
   94000  -0.11283619         1250   0.64287664 
   96000 -0.047522285         1250    0.6199945 
   98000 -0.068844923         1250   0.58840327 
  100000  -0.11791331         1250   0.58447801 
  102000  0.010769867         1250   0.61092139 
  104000  -0.13401918         1250    0.5946405 
  106000 -0.020097588         1250   0.58908622 
  108000 -0.060303152         1250   0.54832103 
  110000 -0.0040735216         1250   0.58287893 
  112000  -0.08207377         1250   0.57326295 
  114000 -0.064857303         1250   0.57901207 
  116000  -0.06777855         1250   0.52781585 
  118000  -0.15554427         1250   0.55561015 
  120000 -0.046601803         1250   0.53192883 
  122000  -0.10380202         1250   0.55695087 
  124000  -0.17261736         1250   0.54773196 
  126000 -0.032102222         1250   0.52013782 
  128000 -0.044224043         1250    0.5273801 
  130000 -0.037001356         1250   0.49309144 
  132000  -0.11920854         1250    0.5327374 
  134000  -0.14401237         1250    0.5074632 
  136000  -0.13040131         1250   0.50456319 
  138000  -0.07620322         1250   0.51846425 
  140000  -0.20218524         1250   0.50747155 
  142000 -0.031393692         1250   0.51266009 
  144000 -0.045012307         1250   0.48423028 
  146000  -0.14034977         1250   0.47619981 
  148000  0.005484705         1250   0.48581415 
  150000  -0.13950489         1250    0.5181929 
  152000  -0.29409888         1250   0.51070765 
  154000  -0.23282853         1250    0.4876907 
  156000 -0.093479223         1250   0.47375709 
  158000  -0.12847111         1250   0.46493726 
  160000  -0.14113526         1250   0.49992725 
  162000  0.018586878         1250   0.48431428 
  164000   -0.1375052         1250   0.45038729 
  166000 -0.028813404         1250   0.47952011 
  168000  -0.14582366         1250   0.49033665 
  170000  -0.20285946         1250   0.48904316 
  172000  -0.18900725         1250    0.4576413 
  174000  -0.20055592         1250   0.47371568 
  176000 -0.00013565477         1250   0.45248326 
  178000   -0.2232766         1250    0.4805277 
  180000 -0.099920732         1250   0.48389317 
  182000  -0.11241951         1250   0.44047155 
  184000   -0.1420492         1250   0.48348825 
  186000  -0.13036543         1250   0.48741678 
  188000 -0.0083750017         1250   0.47955382 
  190000  -0.26609314         1250   0.46394851 
  192000  -0.11212701         1250   0.50331896 
  194000  -0.17476905         1250   0.45667446 
  196000  -0.01576896         1250   0.46191413 
  198000  -0.13024869         1250   0.47361075 
  200000  -0.17204667         1250   0.50558375 
  202000 -0.090881636         1250   0.46147049 
  204000  -0.12192756         1250   0.48452969 
  206000 -0.091436979         1250     0.480322 
  208000 -0.0032018528         1250   0.46461981 
  210000 -0.051260788         1250   0.49625024 
  212000  -0.15327186         1250    0.4744781 
  214000  -0.25390116         1250   0.49212926 
  216000 -0.031772834         1250   0.49778404 
  218000  -0.25415656         1250   0.50385278 
  220000   -0.1834823         1250   0.46208032 
  222000  -0.14991533         1250   0.48684496 
  224000  -0.21023886         1250    0.4702825 
  226000 -0.047703989         1250   0.49596445 
  228000  -0.17825424         1250    0.4849154 
  230000 -0.018517404         1250   0.48968993 
  232000   -0.2384534         1250   0.49537798 
  234000  -0.24210888         1250   0.52624257 
  236000    -0.217965         1250   0.50389987 
  238000  -0.10352894         1250   0.50681562 
  240000 -0.086312758         1250   0.50940419 
  242000  -0.13051759         1250   0.52834263 
  244000  0.018728628         1250   0.50570572 
  246000  -0.08577408         1250   0.51369767 
  248000 -0.064137615         1250   0.51949409 
  250000 -0.064618392         1250   0.50338344 
  252000 0.0036875835         1250   0.53037343 
  254000  -0.17436544         1250   0.53457822 
  256000  -0.29686505         1250   0.53499935 
  258000  -0.18813554         1250   0.53753619 
  260000  -0.05943057         1250   0.51407331 
  262000  -0.03153731         1250   0.54318035 
  264000  -0.10169137         1250   0.54516352 
  266000 -0.091053892         1250   0.55715179 
  268000  -0.14103476         1250   0.52426404 
  270000   -0.2220697         1250   0.52081168 
  272000  -0.20901217         1250   0.54804168 
  274000 0.0035101788         1250   0.50348851 
  276000 -0.077429993         1250    0.5069109 
  278000 -0.089839441         1250    0.5117759 
  280000  -0.11002082         1250   0.52180048 
  282000 0.0046995361         1250   0.53177429 
  284000  -0.11961045         1250   0.51246074 
  286000  -0.18677092         1250   0.50698119 
  288000 -0.052274209         1250   0.50875674 
  290000  -0.18082663         1250   0.50160567 
  292000  -0.14544357         1250   0.49703121 
  294000  -0.18840175         1250    0.5052984 
  296000 -0.077619484         1250   0.51562445 
  298000 -0.033773528         1250    0.4968715 
  300000 -0.0072222875         1250   0.51572489 
  302000  -0.12218949         1250   0.51441617 
  304000 -0.039562639         1250   0.51574229 
  306000  -0.16835658         1250   0.48945829 
  308000  -0.14291925         1250   0.48631023 
  310000 -0.059816525         1250   0.50252313 
  312000 -0.057182689         1250   0.50960165 
  314000  -0.27841939         1250     0.481087 
  316000  -0.24321542         1250   0.50648315 
  318000  -0.14269256         1250   0.48372953 
  320000   -0.1159639         1250   0.50911958 
  322000  -0.15105215         1250   0.49243269 
  324000 -0.013340476         1250   0.47853052 
  326000 -0.057936212         1250   0.48321138 
  328000   -0.1139108         1250   0.49905918 
  330000 -0.060599423         1250   0.47059809 
  332000 -0.045193487         1250   0.49330811 
  334000  -0.11083118         1250   0.49132155 
  336000  -0.16464936         1250   0.48616208 
  338000  -0.14630073         1250   0.49497065 
  340000 -0.068888957         1250   0.48061671 
  342000  -0.13707446         1250   0.44168084 
  344000  -0.17341848         1250    0.4653171 
  346000  -0.17097537         1250   0.50215866 
  348000  -0.18844171         1250   0.45827861 
  350000   -0.1040927         1250   0.48399164 
  352000  -0.13398345         1250   0.49467764 
  354000  -0.17879275         1250    0.4729076 
  356000   -0.1414039         1250   0.49119026 
  358000 -0.074018908         1250   0.45748481 
  360000 -0.094041727         1250   0.48698296 
  362000  -0.13887807         1250   0.49698153 
  364000  -0.21179988         1250   0.46837072 
  366000  -0.14621229         1250   0.49719167 
  368000 -0.031171053         1250   0.49216129 
  370000  -0.22605582         1250   0.48872979 
  372000  -0.15117212         1250   0.48011322 
  374000  -0.10181703         1250   0.47881263 
  376000  -0.13381359         1250   0.48024517 
  378000  -0.09302128         1250   0.48738999 
  380000 -0.094223727         1250   0.48956659 
  382000   -0.2272854         1250   0.48713949 
  384000    -0.151093         1250   0.48330312 
  386000  -0.13901749         1250   0.49846905 
  388000  -0.14457933         1250   0.51379322 
  390000 -0.069122802         1250   0.49564874 
  392000  -0.11520207         1250   0.47564849 
  394000  -0.22299326         1250   0.51415019 
  396000  -0.19928585         1250   0.49065555 
  398000 -0.058231963         1250   0.54343012 
  400000 -0.062496885         1250   0.51756187 
  402000 -0.065395413         1250   0.50978632 
  404000 -0.023837581         1250   0.51150972 
  406000 -0.089144227         1250   0.52174812 
  408000 -0.086223852         1250   0.50235577 
  410000  -0.17320482         1250   0.52086799 
  412000  -0.18192815         1250   0.50261709 
  414000  -0.17886512         1250   0.52186188 
  416000  -0.15859278         1250   0.53161203 
  418000  -0.23735347         1250     0.486833 
  420000  -0.15779547         1250   0.52287815 
  422000  0.010407131         1250   0.52442736 
  424000 -0.043603911         1250   0.49554737 
  426000  -0.23747935         1250   0.51669358 
  428000  -0.24736465         1250    0.5270087 
  430000  -0.18243226         1250   0.50890126 
  432000 0.0036363821         1250   0.50465707 
  434000 -0.039167156         1250   0.53703853 
  436000  -0.12262485         1250   0.49175948 
  438000  -0.11233187         1250   0.52774557 
  440000  -0.18623736         1250   0.52425349 
  442000 -0.084882617         1250   0.50414259 
  444000  -0.27991205         1250   0.53014693 
  446000  -0.10192768         1250   0.51574521 
  448000  -0.23326635         1250   0.50719057 
  450000  -0.11951853         1250   0.49965581 
  452000  -0.20040854         1250   0.50918268 
  454000  -0.19581419         1250   0.51929181 
  456000   -0.2117478         1250   0.48985931 
  458000  -0.18127203         1250    0.5040621 
  460000  0.010988354         1250   0.52412155 
  462000  -0.13454462         1250   0.51483042 
  464000 -0.031013924         1250    0.4986496 
  466000  -0.15754678         1250   0.50704872 
  468000    -0.125793         1250   0.50604425 
  470000  -0.18548329         1250   0.50344831 
  472000 0.0016286298         1250   0.49455985 
  474000  -0.15838017         1250   0.51722456 
  476000 -0.068345306         1250   0.52042014 
  478000 -0.099432957         1250   0.47363972 
  480000  -0.26963423         1250   0.49271683 
  482000  -0.11612896         1250   0.49600987 
  484000 -0.041367066         1250   0.48090159 
  486000   -0.2811449         1250   0.49157809 
  488000  -0.16340611         1250   0.49829504 
  490000 -0.074537966         1250   0.52953808 
  492000 -0.098889454         1250   0.50249049 
  494000  -0.07153275         1250    0.4699576 
  496000 -0.029077086         1250   0.49947972 
  498000  -0.27294106         1250    0.5173905 
  500000 -0.081540019         1250   0.47817717 
Loop time of 169.806 on 1 procs for 500000 steps with 500 atoms

Performance: 1272038.171 tau/day, 2944.533 timesteps/s
84.5% CPU use with 1 MPI tasks x no OpenMP threads

MPI task timing breakdown:
Section |  min time  |  avg time  |  max time  |%varavg| %total
---------------------------------------------------------------
Pair    | 136.66     | 136.66     | 136.66     |   0.0 | 80.48
Neigh   | 19.099     | 19.099     | 19.099     |   0.0 | 11.25
Comm    | 6.5323     | 6.5323     | 6.5323     |   0.0 |  3.85
Output  | 0.035198   | 0.035198   | 0.035198   |   0.0 |  0.02
Modify  | 6.1394     | 6.1394     | 6.1394     |   0.0 |  3.62
Other   |            | 1.337      |            |       |  0.79

Nlocal:    500 ave 500 max 500 min
Histogram: 1 0 0 0 0 0 0 0 0 0
Nghost:    1708 ave 1708 max 1708 min
Histogram: 1 0 0 0 0 0 0 0 0 0
Neighs:    14910 ave 14910 max 14910 min
Histogram: 1 0 0 0 0 0 0 0 0 0

Total # of neighbors = 14910
Ave neighs/atom = 29.82
Neighbor list builds = 25000
Dangerous builds not checked
Total wall time: 0:02:49
