LAMMPS (19 Oct 2016)
# equation of state for LJ

variable temp equal 0.5
variable rho  equal 0.78

units lj
atom_style atomic

lattice    fcc ${rho}
lattice    fcc 0.78
Lattice spacing in x,y,z = 1.72447 1.72447 1.72447
region box block 0 5 0 5 0 5
create_box 1 box
Created orthogonal box = (0 0 0) to (8.62234 8.62234 8.62234)
  1 by 1 by 1 MPI processor grid
create_atoms 1 box
Created 500 atoms
mass       1 1.0

pair_style lj/cut 2.5
pair_coeff 1 1 1.0 1.0 2.5

velocity   all create ${temp} 87287
velocity   all create 0.5 87287

neighbor   0.3 bin
neigh_modify every 20 delay 0 check no

fix        1 all nvt temp ${temp} ${temp} 100
fix        1 all nvt temp 0.5 ${temp} 100
fix        1 all nvt temp 0.5 0.5 100
dump       1 all custom 70000 dump_t${temp}_r${rho}.lammpstrj id type x y z
dump       1 all custom 70000 dump_t0.5_r${rho}.lammpstrj id type x y z
dump       1 all custom 70000 dump_t0.5_r0.78.lammpstrj id type x y z
thermo     2000
thermo_style  custom step press vol temp
thermo_modify flush yes

run 500000
Neighbor list info ...
  1 neighbor list requests
  update every 20 steps, delay 0 steps, check no
  max neighbors/atom: 2000, page size: 100000
  master list distance cutoff = 2.8
  ghost atom cutoff = 2.8
  binsize = 1.4 -> bins = 7 7 7
Memory usage per processor = 3.32306 Mbytes
Step Press Volume Temp 
       0   -5.7294061    641.02564          0.5 
    2000  -0.92673344    641.02564   0.40122927 
    4000  -0.91403405    641.02564   0.38855171 
    6000  -0.85286881    641.02564   0.42570913 
    8000  -0.71539219    641.02564   0.44702286 
   10000   -1.1329044    641.02564   0.46219306 
   12000   -1.3980137    641.02564   0.49512414 
   14000  -0.98046399    641.02564   0.46547514 
   16000   -1.4400584    641.02564   0.49945164 
   18000   -1.1381369    641.02564   0.49184901 
   20000   -1.0760834    641.02564   0.48376959 
   22000   -1.2251934    641.02564   0.47776935 
   24000   -1.2752223    641.02564   0.48441774 
   26000   -1.4143496    641.02564   0.48808445 
   28000   -1.1338279    641.02564   0.49243958 
   30000   -1.1444879    641.02564    0.4787622 
   32000   -1.0083173    641.02564    0.4879599 
   34000   -1.2078582    641.02564   0.48485146 
   36000   -1.2159223    641.02564   0.47605814 
   38000   -1.1022927    641.02564   0.50996541 
   40000   -1.1741113    641.02564   0.46152262 
   42000  -0.79139695    641.02564   0.47745227 
   44000   -1.4241729    641.02564   0.53101319 
   46000   -1.1373238    641.02564   0.48191494 
   48000   -1.0999089    641.02564   0.51737338 
   50000   -1.0935387    641.02564   0.50339907 
   52000  -0.91795009    641.02564   0.49178021 
   54000    -1.078327    641.02564   0.50982477 
   56000  -0.93426861    641.02564   0.47963911 
   58000   -1.3458754    641.02564   0.49666436 
   60000   -1.2168747    641.02564   0.49567243 
   62000    -1.042095    641.02564    0.5077429 
   64000   -1.1967645    641.02564   0.50462632 
   66000   -1.1097647    641.02564   0.52259691 
   68000  -0.89078032    641.02564   0.52581536 
   70000   -1.0688232    641.02564   0.53473741 
   72000  -0.94722278    641.02564   0.50560081 
   74000  -0.87755886    641.02564   0.50018323 
   76000   -1.0907375    641.02564   0.52344435 
   78000   -1.0557913    641.02564   0.52098055 
   80000   -1.1755772    641.02564   0.55087419 
   82000   -1.0356335    641.02564   0.54111329 
   84000   -1.1883829    641.02564    0.5062475 
   86000   -1.0787249    641.02564   0.50781042 
   88000   -1.2783366    641.02564   0.52851425 
   90000   -1.0998247    641.02564   0.49802719 
   92000   -1.0586982    641.02564   0.52395633 
   94000   -0.9523161    641.02564   0.51863828 
   96000   -1.0993063    641.02564    0.5397486 
   98000   -1.1241477    641.02564   0.53218223 
  100000  -0.96061826    641.02564   0.52641223 
  102000  -0.98731612    641.02564   0.49858578 
  104000   -1.2493094    641.02564   0.50630752 
  106000   -1.0602766    641.02564   0.52005128 
  108000   -1.3189427    641.02564   0.54253256 
  110000   -1.0226885    641.02564   0.52094523 
  112000   -1.2836107    641.02564    0.5071368 
  114000   -1.1384066    641.02564   0.48403169 
  116000    -1.109191    641.02564   0.52583603 
  118000   -1.0965378    641.02564   0.52893813 
  120000    -1.066592    641.02564   0.50560377 
  122000   -1.2358219    641.02564   0.51530929 
  124000  -0.95576258    641.02564   0.49093328 
  126000  -0.94536989    641.02564   0.50743583 
  128000   -1.0591066    641.02564   0.49920052 
  130000   -1.1652461    641.02564   0.46926651 
  132000   -1.4289626    641.02564   0.51417735 
  134000   -1.3066306    641.02564   0.50075231 
  136000   -1.3549293    641.02564   0.48531313 
  138000   -1.3648773    641.02564   0.49184519 
  140000   -1.2473773    641.02564   0.45939473 
  142000  -0.98500472    641.02564   0.46367439 
  144000   -1.2805415    641.02564   0.50285265 
  146000   -1.1369673    641.02564   0.48267717 
  148000   -1.0795338    641.02564   0.46542147 
  150000   -1.2300797    641.02564   0.50922931 
  152000   -1.4551911    641.02564   0.52048216 
  154000   -1.2027722    641.02564   0.46905066 
  156000    -1.098155    641.02564   0.49460863 
  158000   -1.0470867    641.02564   0.47399153 
  160000   -1.2007751    641.02564   0.48324311 
  162000   -1.3027536    641.02564   0.46579802 
  164000   -1.1137395    641.02564   0.47767523 
  166000   -1.3688664    641.02564   0.47643001 
  168000   -1.1656975    641.02564   0.49018341 
  170000  -0.74958124    641.02564   0.47647848 
  172000   -1.2968773    641.02564   0.51385699 
  174000   -1.2266808    641.02564   0.48453013 
  176000    -1.249412    641.02564   0.52498459 
  178000   -1.0780088    641.02564   0.50701469 
  180000   -1.1925997    641.02564    0.4969954 
  182000    -1.216066    641.02564   0.50277856 
  184000   -1.0004431    641.02564   0.50879263 
  186000  -0.95138699    641.02564   0.51769853 
  188000   -1.2404065    641.02564   0.50806786 
  190000     -1.18202    641.02564   0.50067454 
  192000   -1.3118344    641.02564   0.50122334 
  194000   -1.0659238    641.02564   0.49551049 
  196000   -1.1036619    641.02564   0.49198707 
  198000  -0.89925568    641.02564   0.50564115 
  200000   -1.1796492    641.02564   0.52372967 
  202000  -0.99678393    641.02564   0.52429155 
  204000   -1.0436077    641.02564   0.50829308 
  206000   -1.0561044    641.02564   0.49428621 
  208000  -0.95607584    641.02564   0.52485145 
  210000   -1.1995629    641.02564   0.53049523 
  212000  -0.97641199    641.02564   0.47930704 
  214000   -1.2113986    641.02564   0.51227774 
  216000  -0.80371557    641.02564   0.50440397 
  218000   -1.1038013    641.02564   0.49029005 
  220000   -1.0084768    641.02564   0.48020701 
  222000   -1.1725877    641.02564   0.48559624 
  224000   -1.1605194    641.02564   0.50731585 
  226000  -0.95762457    641.02564   0.53211679 
  228000   -1.2662086    641.02564   0.51140197 
  230000   -1.0694948    641.02564   0.50254756 
  232000   -1.1110622    641.02564   0.52106843 
  234000   -1.1476966    641.02564      0.51068 
  236000  -0.82465734    641.02564    0.4911013 
  238000   -1.3506541    641.02564   0.52490594 
  240000   -1.2223321    641.02564   0.51830254 
  242000   -1.0863946    641.02564   0.50447983 
  244000   -1.0389053    641.02564   0.48883878 
  246000   -1.2005176    641.02564   0.48860796 
  248000   -1.3163702    641.02564   0.49119848 
  250000   -1.1590227    641.02564   0.48538715 
  252000   -1.0509747    641.02564    0.5294647 
  254000   -1.0599645    641.02564   0.49788993 
  256000  -0.95332797    641.02564   0.47028237 
  258000   -1.1424602    641.02564   0.48782102 
  260000   -1.0704862    641.02564   0.49866967 
  262000   -1.2880756    641.02564   0.49226522 
  264000   -1.2793528    641.02564   0.51379429 
  266000  -0.98025827    641.02564   0.51213378 
  268000   -1.1817493    641.02564   0.50153611 
  270000  -0.81245894    641.02564   0.50877829 
  272000   -1.2660299    641.02564   0.50235195 
  274000   -1.2027338    641.02564   0.48905322 
  276000   -1.2036764    641.02564   0.47950483 
  278000   -1.0303137    641.02564   0.47965978 
  280000   -1.2709089    641.02564   0.47851577 
  282000   -1.2111022    641.02564   0.48239536 
  284000   -1.2205669    641.02564    0.4897448 
  286000   -1.1458582    641.02564   0.48081562 
  288000   -1.1424753    641.02564   0.49039493 
  290000   -1.0846693    641.02564   0.46441257 
  292000   -1.2664423    641.02564   0.49669649 
  294000   -1.4318305    641.02564   0.49828634 
  296000    -1.288783    641.02564   0.46336523 
  298000   -1.2857935    641.02564   0.49512376 
  300000   -1.4069639    641.02564   0.50398611 
  302000   -1.1321155    641.02564   0.45620483 
  304000  -0.99906717    641.02564   0.47333431 
  306000  -0.96244029    641.02564    0.4635648 
  308000   -1.2668366    641.02564    0.4535587 
  310000   -1.1646861    641.02564   0.48735425 
  312000   -1.0946998    641.02564   0.48742372 
  314000   -1.2870044    641.02564   0.49683468 
  316000   -1.1563303    641.02564   0.50279838 
  318000   -1.0791364    641.02564   0.46214959 
  320000  -0.97995861    641.02564   0.47156432 
  322000   -1.0145278    641.02564   0.48309629 
  324000   -1.3195051    641.02564   0.46452786 
  326000   -1.1562663    641.02564   0.47870637 
  328000   -1.1611803    641.02564   0.47316344 
  330000   -1.2952656    641.02564   0.48077342 
  332000   -1.3133256    641.02564   0.49172978 
  334000    -1.133742    641.02564   0.49491771 
  336000   -1.0993117    641.02564   0.47320634 
  338000   -1.1259315    641.02564   0.49657962 
  340000   -1.1693394    641.02564   0.50454288 
  342000  -0.98924693    641.02564   0.51858667 
  344000   -1.1195087    641.02564   0.51932834 
  346000   -1.1659176    641.02564   0.51443064 
  348000     -0.98307    641.02564   0.47493787 
  350000  -0.92872165    641.02564   0.49195636 
  352000   -1.0514015    641.02564   0.50360139 
  354000   -1.0008611    641.02564   0.49517462 
  356000   -1.1115815    641.02564   0.49919766 
  358000   -1.2310945    641.02564   0.48797423 
  360000  -0.83115119    641.02564   0.49398601 
  362000   -1.0927853    641.02564   0.50779953 
  364000   -1.0716475    641.02564   0.49475812 
  366000   -1.2154415    641.02564    0.5458448 
  368000   -1.0528831    641.02564   0.51414653 
  370000     -1.22004    641.02564    0.5480313 
  372000  -0.96470151    641.02564   0.49891796 
  374000   -1.0361055    641.02564   0.49941487 
  376000   -1.1364659    641.02564   0.50730133 
  378000  -0.74401099    641.02564   0.51313468 
  380000  -0.91484158    641.02564   0.50607448 
  382000   -1.0247132    641.02564   0.53759326 
  384000   -1.0154764    641.02564   0.48254638 
  386000   -1.0525378    641.02564   0.50939001 
  388000   -1.1443522    641.02564   0.52182168 
  390000   -1.0759964    641.02564   0.49549247 
  392000   -1.1310543    641.02564   0.50646433 
  394000   -1.0439822    641.02564   0.48808198 
  396000  -0.84628079    641.02564   0.52302339 
  398000   -1.0152174    641.02564   0.48100187 
  400000  -0.94650657    641.02564   0.48542671 
  402000   -1.2255102    641.02564   0.50603313 
  404000   -1.2518767    641.02564   0.51234943 
  406000   -1.1348314    641.02564   0.49419232 
  408000   -1.0988823    641.02564   0.51970511 
  410000   -1.1872279    641.02564   0.49541813 
  412000   -1.0085067    641.02564   0.46775254 
  414000   -1.1323378    641.02564   0.47039161 
  416000  -0.87295524    641.02564   0.48692792 
  418000   -1.2504431    641.02564   0.48829526 
  420000  -0.86683136    641.02564   0.47796471 
  422000    -1.162304    641.02564   0.48613408 
  424000   -1.3054955    641.02564   0.50516084 
  426000   -1.2032264    641.02564   0.48633925 
  428000  -0.87871024    641.02564   0.46631823 
  430000   -1.3081941    641.02564   0.48944041 
  432000   -1.5280917    641.02564    0.4834293 
  434000   -1.2475536    641.02564   0.48064854 
  436000   -1.2662432    641.02564   0.50191267 
  438000   -1.2292158    641.02564   0.49692854 
  440000   -1.1833216    641.02564   0.47915463 
  442000   -1.2768559    641.02564   0.49352399 
  444000   -1.0994539    641.02564   0.48126952 
  446000   -1.2301631    641.02564   0.48882786 
  448000   -1.5204975    641.02564   0.50116148 
  450000  -0.92971567    641.02564   0.47657815 
  452000    -1.266591    641.02564   0.47721674 
  454000    -1.275433    641.02564   0.50546122 
  456000    -1.266393    641.02564   0.50027076 
  458000   -1.0864762    641.02564   0.49149861 
  460000   -1.3188819    641.02564   0.49572017 
  462000    -1.101094    641.02564   0.50499334 
  464000   -1.2180186    641.02564   0.48054548 
  466000   -1.0089203    641.02564   0.51972972 
  468000   -1.0268084    641.02564   0.50086191 
  470000  -0.87430191    641.02564   0.50739655 
  472000   -1.1120588    641.02564   0.48450799 
  474000   -0.9246604    641.02564   0.51500315 
  476000  -0.94926097    641.02564   0.51818638 
  478000  -0.94163229    641.02564   0.48083032 
  480000   -1.0069358    641.02564   0.49159343 
  482000  -0.97837781    641.02564   0.50519948 
  484000   -1.2663968    641.02564   0.48621643 
  486000   -1.2769962    641.02564    0.5317565 
  488000   -1.1077906    641.02564   0.49614863 
  490000  -0.99729088    641.02564   0.52245666 
  492000   -1.1923379    641.02564   0.52328877 
  494000  -0.96803455    641.02564   0.52543382 
  496000  -0.83000266    641.02564   0.51648303 
  498000  -0.99657928    641.02564    0.5001174 
  500000  -0.96648225    641.02564   0.49530045 
Loop time of 149.17 on 1 procs for 500000 steps with 500 atoms

Performance: 1448015.704 tau/day, 3351.888 timesteps/s
97.3% CPU use with 1 MPI tasks x no OpenMP threads

MPI task timing breakdown:
Section |  min time  |  avg time  |  max time  |%varavg| %total
---------------------------------------------------------------
Pair    | 121.8      | 121.8      | 121.8      |   0.0 | 81.65
Neigh   | 18.105     | 18.105     | 18.105     |   0.0 | 12.14
Comm    | 4.3761     | 4.3761     | 4.3761     |   0.0 |  2.93
Output  | 0.017135   | 0.017135   | 0.017135   |   0.0 |  0.01
Modify  | 3.97       | 3.97       | 3.97       |   0.0 |  2.66
Other   |            | 0.8993     |            |       |  0.60

Nlocal:    500 ave 500 max 500 min
Histogram: 1 0 0 0 0 0 0 0 0 0
Nghost:    1641 ave 1641 max 1641 min
Histogram: 1 0 0 0 0 0 0 0 0 0
Neighs:    17957 ave 17957 max 17957 min
Histogram: 1 0 0 0 0 0 0 0 0 0

Total # of neighbors = 17957
Ave neighs/atom = 35.914
Neighbor list builds = 25000
Dangerous builds not checked
Total wall time: 0:02:29
