LAMMPS (19 Oct 2016)
# equation of state for LJ

variable temp equal 0.5
variable rho  equal 0.71

units lj
atom_style atomic

lattice    fcc ${rho}
lattice    fcc 0.71
Lattice spacing in x,y,z = 1.77937 1.77937 1.77937
region box block 0 5 0 5 0 5
create_box 1 box
Created orthogonal box = (0 0 0) to (8.89687 8.89687 8.89687)
  1 by 1 by 1 MPI processor grid
create_atoms 1 box
Created 500 atoms
mass       1 1.0

pair_style lj/cut 2.5
pair_coeff 1 1 1.0 1.0 2.5

velocity   all create ${temp} 87287
velocity   all create 0.5 87287

neighbor   0.3 bin
neigh_modify every 20 delay 0 check no

fix        1 all nvt temp ${temp} ${temp} 100
fix        1 all nvt temp 0.5 ${temp} 100
fix        1 all nvt temp 0.5 0.5 100
dump       1 all custom 70000 dump_t${temp}_r${rho}.lammpstrj id type x y z
dump       1 all custom 70000 dump_t0.5_r${rho}.lammpstrj id type x y z
dump       1 all custom 70000 dump_t0.5_r0.71.lammpstrj id type x y z
thermo     2000
thermo_style  custom step press vol temp
thermo_modify flush yes

run 500000
Neighbor list info ...
  1 neighbor list requests
  update every 20 steps, delay 0 steps, check no
  max neighbors/atom: 2000, page size: 100000
  master list distance cutoff = 2.8
  ghost atom cutoff = 2.8
  binsize = 1.4 -> bins = 7 7 7
Memory usage per processor = 3.32306 Mbytes
Step Press Volume Temp 
       0   -5.0328673    704.22535          0.5 
    2000  -0.73181094    704.22535   0.51472015 
    4000  -0.73450823    704.22535    0.5112657 
    6000  -0.49752396    704.22535   0.49991257 
    8000  -0.44982097    704.22535   0.51086994 
   10000   -0.6689457    704.22535   0.49683691 
   12000  -0.68433321    704.22535   0.51739734 
   14000  -0.58459555    704.22535   0.51183437 
   16000   -0.6895467    704.22535   0.51091197 
   18000  -0.81110905    704.22535   0.53412807 
   20000  -0.37262747    704.22535   0.48716872 
   22000  -0.77355866    704.22535     0.515327 
   24000   -0.6669436    704.22535   0.51493043 
   26000  -0.42830375    704.22535    0.5093658 
   28000  -0.58623344    704.22535   0.52093286 
   30000  -0.67541909    704.22535   0.49782922 
   32000   -0.5408094    704.22535   0.46863519 
   34000  -0.78936649    704.22535   0.51648062 
   36000  -0.81464557    704.22535   0.52128075 
   38000  -0.68833611    704.22535   0.49571589 
   40000  -0.55587448    704.22535   0.49318631 
   42000  -0.72039225    704.22535   0.48016218 
   44000  -0.54448573    704.22535   0.47621073 
   46000  -0.58269778    704.22535   0.49946017 
   48000  -0.59288715    704.22535   0.52691318 
   50000  -0.83856611    704.22535   0.47971744 
   52000  -0.67683459    704.22535     0.470375 
   54000  -0.89295488    704.22535   0.48739024 
   56000   -0.6503477    704.22535   0.47580932 
   58000  -0.34839245    704.22535   0.50358618 
   60000  -0.53226568    704.22535    0.5068589 
   62000  -0.52449351    704.22535   0.49268166 
   64000  -0.60014872    704.22535   0.47503923 
   66000  -0.34224268    704.22535   0.46063938 
   68000  -0.60448099    704.22535   0.48812665 
   70000  -0.51917251    704.22535   0.46866351 
   72000  -0.62099192    704.22535   0.48512935 
   74000  -0.67793259    704.22535   0.46835649 
   76000   -0.7460841    704.22535   0.47505552 
   78000  -0.75430526    704.22535   0.48382551 
   80000  -0.68317975    704.22535   0.47714249 
   82000  -0.51520546    704.22535   0.48564573 
   84000  -0.64246193    704.22535   0.49227169 
   86000  -0.49366096    704.22535    0.5063405 
   88000  -0.73490113    704.22535   0.48052922 
   90000  -0.70349553    704.22535   0.49113779 
   92000  -0.81712487    704.22535   0.46226379 
   94000  -0.55790011    704.22535   0.49377397 
   96000   -0.5207552    704.22535   0.49046245 
   98000   -0.7431811    704.22535    0.4691633 
  100000  -0.82647269    704.22535   0.50323621 
  102000  -0.75616177    704.22535   0.48606402 
  104000  -0.33797425    704.22535   0.49281438 
  106000  -0.36536773    704.22535   0.48916332 
  108000  -0.68494872    704.22535   0.49808065 
  110000  -0.62596852    704.22535   0.48529447 
  112000  -0.73509833    704.22535   0.49694013 
  114000  -0.59967196    704.22535   0.48143627 
  116000  -0.68883436    704.22535   0.50059435 
  118000  -0.67995783    704.22535   0.49960086 
  120000  -0.67029071    704.22535   0.50380084 
  122000  -0.55097528    704.22535   0.50129953 
  124000  -0.56619868    704.22535   0.51602069 
  126000  -0.71263507    704.22535   0.48114354 
  128000  -0.58716531    704.22535   0.49330369 
  130000   -0.7065757    704.22535   0.51290469 
  132000   -0.6867196    704.22535   0.49724447 
  134000   -0.6697154    704.22535   0.49597389 
  136000  -0.51229879    704.22535   0.51515139 
  138000  -0.83178493    704.22535   0.51302303 
  140000  -0.35012617    704.22535   0.51573827 
  142000  -0.74926952    704.22535    0.4912417 
  144000  -0.68002156    704.22535   0.49776606 
  146000   -0.3077997    704.22535   0.51702131 
  148000  -0.71303522    704.22535   0.47839156 
  150000  -0.73248181    704.22535   0.50631372 
  152000  -0.56919296    704.22535   0.51971253 
  154000  -0.70245366    704.22535   0.52588775 
  156000  -0.57584538    704.22535   0.51827036 
  158000  -0.72178445    704.22535   0.47700857 
  160000  -0.78323316    704.22535   0.48650829 
  162000  -0.78073251    704.22535   0.49743417 
  164000  -0.48821176    704.22535   0.52850606 
  166000  -0.53379622    704.22535   0.51404872 
  168000  -0.67233876    704.22535   0.49984191 
  170000  -0.63356068    704.22535   0.50933308 
  172000  -0.42974479    704.22535   0.50586808 
  174000  -0.58713316    704.22535   0.51966579 
  176000  -0.70964854    704.22535   0.49723981 
  178000  -0.61895333    704.22535   0.50680847 
  180000  -0.56429325    704.22535   0.48984891 
  182000  -0.48740207    704.22535   0.49555775 
  184000  -0.91308111    704.22535    0.4869836 
  186000  -0.47262758    704.22535   0.46117309 
  188000  -0.59476164    704.22535   0.50298908 
  190000  -0.45744153    704.22535   0.50530627 
  192000  -0.50092816    704.22535   0.50291015 
  194000  -0.71034757    704.22535   0.49788701 
  196000  -0.83453954    704.22535   0.48573389 
  198000  -0.52951979    704.22535   0.47360727 
  200000  -0.46977915    704.22535   0.49614876 
  202000  -0.62363908    704.22535   0.49182793 
  204000   -0.4218629    704.22535    0.4507238 
  206000  -0.82447274    704.22535   0.45890387 
  208000  -0.45019726    704.22535   0.48445351 
  210000  -0.73716417    704.22535   0.46847299 
  212000  -0.73147908    704.22535    0.4756355 
  214000  -0.49194924    704.22535   0.49147715 
  216000  -0.33884138    704.22535   0.46516722 
  218000  -0.73189187    704.22535   0.48401401 
  220000  -0.56015709    704.22535   0.45006551 
  222000  -0.77114865    704.22535   0.47627477 
  224000  -0.85430038    704.22535   0.49193882 
  226000  -0.78316454    704.22535   0.48660369 
  228000  -0.43005049    704.22535   0.46512533 
  230000  -0.77189974    704.22535   0.49932398 
  232000  -0.69604731    704.22535   0.47351399 
  234000  -0.78475529    704.22535   0.48261345 
  236000  -0.54251241    704.22535   0.49790499 
  238000  -0.72127944    704.22535   0.50487195 
  240000  -0.60410669    704.22535   0.47083337 
  242000  -0.62867319    704.22535   0.48111878 
  244000  -0.60113997    704.22535   0.48644785 
  246000  -0.42804543    704.22535   0.48867127 
  248000  -0.79602289    704.22535   0.48538863 
  250000  -0.61563938    704.22535   0.49569432 
  252000  -0.65525897    704.22535   0.48216043 
  254000  -0.64913748    704.22535   0.52260123 
  256000  -0.57060934    704.22535    0.4931507 
  258000  -0.63830805    704.22535   0.48409553 
  260000  -0.68322592    704.22535   0.47856187 
  262000  -0.57435086    704.22535   0.51419679 
  264000  -0.74593359    704.22535   0.49823945 
  266000  -0.67197679    704.22535   0.49009336 
  268000  -0.55567072    704.22535   0.52262254 
  270000  -0.65321504    704.22535   0.47202401 
  272000    -0.541061    704.22535   0.49765744 
  274000  -0.49539762    704.22535   0.50379699 
  276000  -0.68565714    704.22535   0.50530859 
  278000  -0.81175339    704.22535   0.49780764 
  280000  -0.79189541    704.22535   0.50901125 
  282000  -0.58859507    704.22535    0.5251947 
  284000   -0.6637458    704.22535   0.49953924 
  286000  -0.65358563    704.22535    0.4911508 
  288000  -0.41595849    704.22535   0.53511487 
  290000   -0.5754479    704.22535   0.49132958 
  292000  -0.50737617    704.22535    0.5261577 
  294000  -0.70251433    704.22535   0.51130641 
  296000  -0.40633951    704.22535   0.49894888 
  298000  -0.78495293    704.22535    0.4936168 
  300000  -0.71006811    704.22535   0.50232376 
  302000  -0.75148196    704.22535    0.5020111 
  304000  -0.79465034    704.22535   0.47788813 
  306000  -0.65394057    704.22535   0.50741892 
  308000  -0.74318056    704.22535   0.49224283 
  310000  -0.67634723    704.22535   0.48806006 
  312000  -0.72491768    704.22535   0.48693942 
  314000  -0.60288502    704.22535   0.51338142 
  316000  -0.68712243    704.22535   0.49594793 
  318000  -0.54867772    704.22535    0.4827893 
  320000  -0.39012021    704.22535   0.50539786 
  322000  -0.52772241    704.22535   0.51250398 
  324000  -0.77874215    704.22535   0.50468424 
  326000  -0.34224639    704.22535   0.50635545 
  328000  -0.69097431    704.22535   0.49124751 
  330000  -0.60226486    704.22535   0.49964926 
  332000    -0.763892    704.22535    0.4649971 
  334000  -0.80429561    704.22535   0.49588129 
  336000  -0.78851184    704.22535   0.48600974 
  338000  -0.77360303    704.22535   0.50683768 
  340000  -0.68259256    704.22535   0.51081483 
  342000  -0.50391701    704.22535   0.51164303 
  344000  -0.38689687    704.22535   0.47584585 
  346000   -0.7383485    704.22535   0.49007225 
  348000  -0.53572564    704.22535   0.50703741 
  350000  -0.63922016    704.22535   0.48170409 
  352000  -0.70403194    704.22535   0.47535764 
  354000  -0.42442382    704.22535    0.5072931 
  356000   -0.6949165    704.22535   0.49934985 
  358000  -0.58064153    704.22535   0.50794602 
  360000   -0.6251993    704.22535    0.4998579 
  362000   -0.8983948    704.22535   0.49041239 
  364000  -0.64132435    704.22535   0.47908626 
  366000  -0.54354225    704.22535   0.48407668 
  368000  -0.60550992    704.22535   0.47034317 
  370000  -0.49560705    704.22535   0.48893483 
  372000  -0.87447867    704.22535   0.48175253 
  374000  -0.61026672    704.22535   0.48557464 
  376000  -0.57983255    704.22535   0.48623177 
  378000  -0.85592686    704.22535   0.48376492 
  380000  -0.66266222    704.22535   0.48141246 
  382000  -0.63952474    704.22535   0.49430657 
  384000  -0.62510165    704.22535   0.47488157 
  386000  -0.51058105    704.22535    0.4777564 
  388000  -0.67062461    704.22535    0.4842144 
  390000  -0.73305036    704.22535   0.47202375 
  392000  -0.45040359    704.22535   0.46627967 
  394000  -0.65539402    704.22535    0.4697462 
  396000  -0.73125805    704.22535   0.47516655 
  398000  -0.56607846    704.22535   0.49132408 
  400000  -0.70578461    704.22535   0.50985671 
  402000  -0.66680264    704.22535   0.49551049 
  404000  -0.53451232    704.22535   0.49687058 
  406000  -0.67706231    704.22535   0.48963661 
  408000  -0.56019448    704.22535   0.51046456 
  410000   -0.3756773    704.22535   0.50684693 
  412000  -0.50541307    704.22535   0.49923755 
  414000  -0.54793282    704.22535   0.50734847 
  416000  -0.77085875    704.22535   0.51248516 
  418000  -0.66402876    704.22535   0.49982498 
  420000  -0.60133227    704.22535   0.49125325 
  422000  -0.56568423    704.22535   0.48169475 
  424000  -0.80937855    704.22535   0.52159389 
  426000  -0.95939562    704.22535   0.50714258 
  428000  -0.74471714    704.22535   0.50788266 
  430000  -0.82166521    704.22535   0.50816219 
  432000  -0.60624992    704.22535   0.52040065 
  434000  -0.69175364    704.22535   0.47797718 
  436000  -0.66208084    704.22535   0.49792482 
  438000  -0.60477958    704.22535   0.51178054 
  440000  -0.61471466    704.22535   0.52195035 
  442000  -0.47345346    704.22535   0.50699819 
  444000  -0.65311358    704.22535    0.5393448 
  446000  -0.77944524    704.22535   0.51047837 
  448000  -0.31354099    704.22535   0.51458146 
  450000  -0.75196813    704.22535   0.51184204 
  452000  -0.64196971    704.22535   0.48928521 
  454000  -0.61089562    704.22535   0.52035349 
  456000  -0.70433255    704.22535   0.49868649 
  458000   -0.6671268    704.22535   0.51049778 
  460000  -0.47679299    704.22535   0.51262165 
  462000  -0.67157545    704.22535     0.499745 
  464000  -0.76906965    704.22535   0.51148556 
  466000  -0.47515621    704.22535   0.48807915 
  468000   -0.6664819    704.22535   0.50533129 
  470000  -0.70860658    704.22535   0.53742346 
  472000  -0.54324045    704.22535   0.47859606 
  474000  -0.65781815    704.22535   0.51166661 
  476000  -0.83166342    704.22535   0.49620522 
  478000  -0.64879377    704.22535   0.52148126 
  480000  -0.74884501    704.22535   0.52348086 
  482000  -0.58279167    704.22535   0.50463769 
  484000  -0.54068473    704.22535   0.51756209 
  486000   -0.6181438    704.22535   0.51974474 
  488000    -0.830616    704.22535   0.50388212 
  490000   -0.5029213    704.22535    0.5173819 
  492000   -0.7708759    704.22535   0.48439518 
  494000  -0.74184683    704.22535   0.51177897 
  496000  -0.56963242    704.22535   0.49913734 
  498000  -0.61672492    704.22535   0.48910468 
  500000  -0.71142613    704.22535   0.47389258 
Loop time of 171.176 on 1 procs for 500000 steps with 500 atoms

Performance: 1261856.440 tau/day, 2920.964 timesteps/s
94.1% CPU use with 1 MPI tasks x no OpenMP threads

MPI task timing breakdown:
Section |  min time  |  avg time  |  max time  |%varavg| %total
---------------------------------------------------------------
Pair    | 137.65     | 137.65     | 137.65     |   0.0 | 80.42
Neigh   | 21.405     | 21.405     | 21.405     |   0.0 | 12.50
Comm    | 6.0044     | 6.0044     | 6.0044     |   0.0 |  3.51
Output  | 0.035994   | 0.035994   | 0.035994   |   0.0 |  0.02
Modify  | 4.9145     | 4.9145     | 4.9145     |   0.0 |  2.87
Other   |            | 1.163      |            |       |  0.68

Nlocal:    500 ave 500 max 500 min
Histogram: 1 0 0 0 0 0 0 0 0 0
Nghost:    1837 ave 1837 max 1837 min
Histogram: 1 0 0 0 0 0 0 0 0 0
Neighs:    16649 ave 16649 max 16649 min
Histogram: 1 0 0 0 0 0 0 0 0 0

Total # of neighbors = 16649
Ave neighs/atom = 33.298
Neighbor list builds = 25000
Dangerous builds not checked
Total wall time: 0:02:51
