LAMMPS (19 Oct 2016)
# equation of state for LJ

variable temp equal 0.5
variable rho  equal 0.881

units lj
atom_style atomic

lattice    fcc ${rho}
lattice    fcc 0.881
Lattice spacing in x,y,z = 1.65588 1.65588 1.65588
region box block 0 5 0 5 0 5
create_box 1 box
Created orthogonal box = (0 0 0) to (8.27938 8.27938 8.27938)
  1 by 1 by 1 MPI processor grid
create_atoms 1 box
Created 500 atoms
mass       1 1.0

pair_style lj/cut 2.5
pair_coeff 1 1 1.0 1.0 2.5

velocity   all create ${temp} 87287
velocity   all create 0.5 87287

neighbor   0.3 bin
neigh_modify every 20 delay 0 check no

fix        1 all nvt temp ${temp} ${temp} 100
fix        1 all nvt temp 0.5 ${temp} 100
fix        1 all nvt temp 0.5 0.5 100
dump       1 all custom 70000 dump_t${temp}_r${rho}.lammpstrj id type x y z
dump       1 all custom 70000 dump_t0.5_r${rho}.lammpstrj id type x y z
dump       1 all custom 70000 dump_t0.5_r0.881.lammpstrj id type x y z
thermo     2000
thermo_style  custom step press vol temp
thermo_modify flush yes

run 500000
Neighbor list info ...
  1 neighbor list requests
  update every 20 steps, delay 0 steps, check no
  max neighbors/atom: 2000, page size: 100000
  master list distance cutoff = 2.8
  ghost atom cutoff = 2.8
  binsize = 1.4 -> bins = 6 6 6
Memory usage per processor = 3.32155 Mbytes
Step Press Volume Temp 
       0   -5.5940289    567.53689          0.5 
    2000   -3.7704958    567.53689   0.26905123 
    4000   -3.6516781    567.53689   0.25542307 
    6000   -3.7225747    567.53689   0.27200747 
    8000   -3.6416917    567.53689   0.26982663 
   10000   -3.6077262    567.53689   0.27118864 
   12000   -3.7198593    567.53689   0.29345098 
   14000   -3.6714944    567.53689   0.29667633 
   16000   -3.5601895    567.53689   0.28223287 
   18000   -3.6212782    567.53689   0.29796472 
   20000   -3.3859842    567.53689   0.28392624 
   22000   -3.3615475    567.53689   0.28549047 
   24000   -3.4230902    567.53689    0.3024092 
   26000   -3.3739813    567.53689   0.30186442 
   28000   -3.3149652    567.53689   0.30890408 
   30000   -3.3702066    567.53689    0.3226212 
   32000   -3.3030962    567.53689   0.32467235 
   34000   -3.3354751    567.53689   0.33941207 
   36000   -3.1192518    567.53689   0.32536297 
   38000   -3.2097953    567.53689   0.34623887 
   40000   -3.1104198    567.53689    0.3471442 
   42000   -2.9901721    567.53689   0.33525536 
   44000   -3.0117288    567.53689   0.35291163 
   46000   -2.9398776    567.53689    0.3508171 
   48000    -3.072036    567.53689    0.3822648 
   50000   -2.9067449    567.53689   0.36985737 
   52000   -2.7952934    567.53689   0.36794744 
   54000   -2.6970289    567.53689   0.37272556 
   56000   -2.7239231    567.53689   0.38501123 
   58000   -2.7577493    567.53689   0.40077859 
   60000   -2.5484813    567.53689   0.38643752 
   62000   -2.5741757    567.53689   0.40015928 
   64000   -2.4557367    567.53689   0.39970342 
   66000   -2.6285739    567.53689    0.4355088 
   68000   -2.4455553    567.53689   0.41413037 
   70000   -2.4657318    567.53689    0.4324395 
   72000   -2.5416726    567.53689   0.45383311 
   74000   -2.2640643    567.53689    0.4294719 
   76000    -2.240135    567.53689   0.43760248 
   78000    -2.195039    567.53689   0.44007087 
   80000   -2.2632395    567.53689    0.4621692 
   82000   -2.2040893    567.53689   0.47054759 
   84000     -2.05309    567.53689   0.45960781 
   86000   -2.1547584    567.53689    0.4846431 
   88000   -2.0894804    567.53689   0.48892089 
   90000   -2.1151677    567.53689   0.49495847 
   92000    -1.898062    567.53689   0.47865757 
   94000   -1.9975743    567.53689   0.50183589 
   96000   -1.9673007    567.53689     0.503664 
   98000   -1.9073545    567.53689   0.50619627 
  100000   -1.8292457    567.53689   0.50327924 
  102000   -1.7904701    567.53689   0.49922453 
  104000   -1.8554775    567.53689   0.52003804 
  106000   -1.8835791    567.53689   0.53334601 
  108000   -1.8840528    567.53689   0.53911362 
  110000   -1.5721468    567.53689   0.50159427 
  112000   -1.6785355    567.53689   0.52981641 
  114000   -1.5990672    567.53689   0.51676675 
  116000   -1.7381197    567.53689   0.53621337 
  118000   -1.8229068    567.53689   0.55236051 
  120000   -1.6604099    567.53689   0.53013147 
  122000   -1.7681608    567.53689   0.55102113 
  124000    -1.752856    567.53689   0.54102709 
  126000   -1.5907437    567.53689   0.52010461 
  128000     -1.74822    567.53689   0.53633473 
  130000   -1.7450426    567.53689   0.53826173 
  132000   -1.7197289    567.53689   0.53162965 
  134000   -1.7632783    567.53689   0.53147977 
  136000   -1.7830843    567.53689   0.52819829 
  138000   -1.6680566    567.53689   0.51411019 
  140000   -1.9937559    567.53689   0.54702851 
  142000   -1.7305063    567.53689   0.51530531 
  144000   -1.9313121    567.53689   0.52494725 
  146000   -1.8691061    567.53689   0.51275162 
  148000   -2.0020157    567.53689   0.52581737 
  150000   -1.9225304    567.53689   0.51507617 
  152000   -1.9349308    567.53689   0.50264046 
  154000   -2.0744669    567.53689    0.5155023 
  156000   -1.9215114    567.53689   0.49083677 
  158000   -2.0548758    567.53689   0.49749505 
  160000   -2.0489928    567.53689   0.49491499 
  162000   -2.1164193    567.53689   0.49544289 
  164000   -1.9402181    567.53689   0.47827179 
  166000   -1.9037924    567.53689   0.46207571 
  168000   -1.9582164    567.53689   0.46752613 
  170000   -1.9537438    567.53689   0.46794226 
  172000   -2.1680697    567.53689   0.49398352 
  174000   -1.9872085    567.53689   0.46281074 
  176000   -2.1708669    567.53689   0.47812438 
  178000   -2.1752505    567.53689   0.48072035 
  180000   -2.0955164    567.53689   0.47250594 
  182000   -2.3730782    567.53689   0.50555792 
  184000   -2.0629732    567.53689   0.46490961 
  186000   -2.1779042    567.53689   0.48252911 
  188000   -2.1111155    567.53689   0.47041129 
  190000   -1.9746196    567.53689   0.46056306 
  192000   -2.0656821    567.53689   0.46904588 
  194000   -1.9904701    567.53689    0.4637618 
  196000   -2.1986703    567.53689   0.49511801 
  198000   -2.1929024    567.53689   0.49727302 
  200000   -2.2001868    567.53689   0.50003446 
  202000   -2.0994234    567.53689   0.49255011 
  204000   -1.9057591    567.53689   0.47398377 
  206000   -1.9347126    567.53689   0.47969334 
  208000   -2.1595064    567.53689   0.51495063 
  210000    -2.104276    567.53689   0.51022508 
  212000   -1.9480516    567.53689   0.50351457 
  214000   -1.8279062    567.53689   0.48366462 
  216000   -2.0229156    567.53689   0.51443866 
  218000   -1.9716137    567.53689   0.51220556 
  220000   -1.8902782    567.53689   0.50845736 
  222000   -1.9280687    567.53689   0.51479818 
  224000   -1.8637112    567.53689   0.51637168 
  226000   -1.7732997    567.53689   0.50728243 
  228000   -1.6862933    567.53689   0.49458061 
  230000   -1.9232175    567.53689   0.52411245 
  232000   -1.8179763    567.53689    0.5162347 
  234000     -1.66687    567.53689   0.50559724 
  236000   -1.6492905    567.53689   0.50824585 
  238000   -1.6801091    567.53689   0.50878553 
  240000    -1.862165    567.53689   0.53013419 
  242000   -1.9196656    567.53689   0.53813482 
  244000   -1.6245144    567.53689   0.49811069 
  246000   -1.7910202    567.53689   0.52497555 
  248000   -1.7054712    567.53689   0.51527286 
  250000   -1.8832103    567.53689   0.53194876 
  252000   -1.7375255    567.53689   0.51063154 
  254000    -1.793973    567.53689   0.51649136 
  256000   -1.8773559    567.53689   0.52084913 
  258000   -1.7949783    567.53689   0.50903434 
  260000   -1.7854963    567.53689   0.49986364 
  262000   -1.9412929    567.53689   0.51903502 
  264000   -2.0720054    567.53689   0.53114707 
  266000   -1.9244249    567.53689    0.5120479 
  268000   -1.9577153    567.53689   0.51438717 
  270000   -1.8785939    567.53689   0.49755173 
  272000   -1.9944033    567.53689   0.50727375 
  274000   -2.0314239    567.53689    0.5051157 
  276000   -2.0632701    567.53689   0.50953774 
  278000    -1.830717    567.53689    0.4711977 
  280000   -1.7429408    567.53689   0.45826992 
  282000   -1.8447512    567.53689   0.46797383 
  284000   -2.0653515    567.53689    0.4928215 
  286000   -2.0064211    567.53689   0.48154019 
  288000   -1.7877429    567.53689   0.45383215 
  290000   -2.1236083    567.53689   0.49128024 
  292000    -2.119147    567.53689   0.49164321 
  294000   -2.0931046    567.53689   0.49026727 
  296000    -2.188079    567.53689   0.49711549 
  298000   -2.0775912    567.53689   0.47950566 
  300000   -2.2124938    567.53689   0.49358302 
  302000   -2.1757323    567.53689   0.49328582 
  304000   -2.0573178    567.53689   0.47152921 
  306000   -2.0042986    567.53689   0.47406898 
  308000   -2.2463901    567.53689    0.5033417 
  310000   -2.0567641    567.53689     0.482978 
  312000   -2.0107484    567.53689   0.47371903 
  314000   -2.0019816    567.53689   0.47283275 
  316000   -2.0191292    567.53689   0.47878517 
  318000   -2.1065374    567.53689   0.50039732 
  320000   -1.9491836    567.53689   0.48324441 
  322000   -2.0659487    567.53689    0.5019334 
  324000   -2.0509528    567.53689   0.49710893 
  326000   -1.8444493    567.53689   0.47224181 
  328000   -1.9448568    567.53689   0.48740791 
  330000    -2.046437    567.53689   0.50882397 
  332000    -1.840873    567.53689   0.48502439 
  334000   -1.9565949    567.53689    0.5071392 
  336000   -1.8900971    567.53689   0.49947318 
  338000    -1.718339    567.53689   0.47905564 
  340000   -1.7329774    567.53689   0.49147484 
  342000   -1.9743326    567.53689   0.51973169 
  344000   -1.7044495    567.53689   0.49256095 
  346000   -1.9244449    567.53689   0.51629992 
  348000   -1.8767158    567.53689   0.51608792 
  350000   -1.7383118    567.53689   0.50555631 
  352000   -1.9001537    567.53689   0.52359255 
  354000   -1.7535236    567.53689   0.51147828 
  356000    -1.759494    567.53689    0.5061455 
  358000   -1.7163865    567.53689   0.50119318 
  360000   -1.8768946    567.53689   0.52464913 
  362000   -1.9627887    567.53689   0.53717607 
  364000   -1.9356958    567.53689   0.53275581 
  366000   -1.8745199    567.53689   0.52366607 
  368000   -1.9181559    567.53689     0.532291 
  370000   -1.7448934    567.53689   0.50042864 
  372000   -1.7402687    567.53689   0.50397621 
  374000   -1.7386002    567.53689   0.50259772 
  376000   -1.7839678    567.53689   0.50521942 
  378000    -1.925048    567.53689   0.52239552 
  380000   -1.9810107    567.53689    0.5207098 
  382000   -1.9132572    567.53689    0.5106774 
  384000   -1.8854603    567.53689   0.50643314 
  386000   -1.9449607    567.53689   0.50542333 
  388000   -2.0104838    567.53689   0.51339883 
  390000   -1.9347031    567.53689   0.50582937 
  392000   -2.0912528    567.53689   0.51461376 
  394000   -1.8870539    567.53689   0.49072225 
  396000   -1.9480931    567.53689    0.4927762 
  398000   -2.0134202    567.53689   0.50044512 
  400000   -2.1188596    567.53689   0.50450238 
  402000   -2.0977569    567.53689    0.5004737 
  404000    -1.899674    567.53689   0.47659188 
  406000   -1.9771358    567.53689   0.48221338 
  408000   -2.0146363    567.53689     0.484164 
  410000   -2.2503666    567.53689    0.5116801 
  412000   -1.9201677    567.53689   0.46807933 
  414000   -2.0930006    567.53689   0.49354969 
  416000   -2.2353983    567.53689   0.50788067 
  418000   -2.1479533    567.53689    0.4945213 
  420000   -2.1251869    567.53689   0.49003632 
  422000   -2.0676049    567.53689   0.48355498 
  424000   -2.1484031    567.53689   0.49639201 
  426000   -1.9789041    567.53689   0.47633784 
  428000   -1.9604838    567.53689   0.46824113 
  430000    -2.121643    567.53689   0.49260324 
  432000   -2.0586167    567.53689    0.4885832 
  434000    -2.077741    567.53689   0.49090645 
  436000   -2.0815674    567.53689   0.49552836 
  438000   -1.9195943    567.53689   0.47593562 
  440000   -1.9568128    567.53689   0.48629717 
  442000   -1.9508589    567.53689   0.49316922 
  444000    -1.926738    567.53689   0.49343436 
  446000   -1.9779106    567.53689    0.5019341 
  448000   -2.0385162    567.53689   0.51125591 
  450000   -2.0256544    567.53689   0.51359841 
  452000   -2.0731963    567.53689   0.52749586 
  454000   -1.8465527    567.53689   0.50421457 
  456000   -1.8844697    567.53689   0.50901449 
  458000   -1.8013193    567.53689   0.50027013 
  460000   -1.8258422    567.53689   0.51017877 
  462000   -1.8436442    567.53689   0.51092121 
  464000    -2.007982    567.53689   0.53519139 
  466000   -1.7704934    567.53689   0.50499295 
  468000   -1.6713787    567.53689   0.49033681 
  470000   -1.8187633    567.53689   0.50954823 
  472000   -1.8075819    567.53689   0.51466532 
  474000   -1.8630135    567.53689   0.52139225 
  476000   -1.7177499    567.53689    0.5026317 
  478000   -1.8384926    567.53689   0.51670734 
  480000   -1.8895448    567.53689   0.51740519 
  482000   -1.8789755    567.53689   0.51711498 
  484000   -1.9909986    567.53689   0.52743024 
  486000   -1.8243048    567.53689   0.50461577 
  488000   -2.0190072    567.53689   0.52932136 
  490000   -1.8747302    567.53689   0.50817546 
  492000   -1.8458174    567.53689   0.49702856 
  494000   -1.9821321    567.53689   0.51354068 
  496000   -2.2133491    567.53689   0.54440742 
  498000   -1.9743383    567.53689   0.50646132 
  500000   -1.9716422    567.53689   0.49855183 
Loop time of 197.063 on 1 procs for 500000 steps with 500 atoms

Performance: 1096098.565 tau/day, 2537.265 timesteps/s
89.6% CPU use with 1 MPI tasks x no OpenMP threads

MPI task timing breakdown:
Section |  min time  |  avg time  |  max time  |%varavg| %total
---------------------------------------------------------------
Pair    | 158.18     | 158.18     | 158.18     |   0.0 | 80.27
Neigh   | 25.725     | 25.725     | 25.725     |   0.0 | 13.05
Comm    | 6.6        | 6.6        | 6.6        |   0.0 |  3.35
Output  | 0.026947   | 0.026947   | 0.026947   |   0.0 |  0.01
Modify  | 5.1886     | 5.1886     | 5.1886     |   0.0 |  2.63
Other   |            | 1.341      |            |       |  0.68

Nlocal:    500 ave 500 max 500 min
Histogram: 1 0 0 0 0 0 0 0 0 0
Nghost:    1956 ave 1956 max 1956 min
Histogram: 1 0 0 0 0 0 0 0 0 0
Neighs:    19604 ave 19604 max 19604 min
Histogram: 1 0 0 0 0 0 0 0 0 0

Total # of neighbors = 19604
Ave neighs/atom = 39.208
Neighbor list builds = 25000
Dangerous builds not checked
Total wall time: 0:03:17
