LAMMPS (19 Oct 2016)
# equation of state for LJ

variable temp equal 0.5
variable rho  equal 0.8

units lj
atom_style atomic

lattice    fcc ${rho}
lattice    fcc 0.8
Lattice spacing in x,y,z = 1.70998 1.70998 1.70998
region box block 0 5 0 5 0 5
create_box 1 box
Created orthogonal box = (0 0 0) to (8.54988 8.54988 8.54988)
  1 by 1 by 1 MPI processor grid
create_atoms 1 box
Created 500 atoms
mass       1 1.0

pair_style lj/cut 2.5
pair_coeff 1 1 1.0 1.0 2.5

velocity   all create ${temp} 87287
velocity   all create 0.5 87287

neighbor   0.3 bin
neigh_modify every 20 delay 0 check no

fix        1 all nvt temp ${temp} ${temp} 100
fix        1 all nvt temp 0.5 ${temp} 100
fix        1 all nvt temp 0.5 0.5 100
dump       1 all custom 70000 dump_t${temp}_r${rho}.lammpstrj id type x y z
dump       1 all custom 70000 dump_t0.5_r${rho}.lammpstrj id type x y z
dump       1 all custom 70000 dump_t0.5_r0.8.lammpstrj id type x y z
thermo     2000
thermo_style  custom step press vol temp
thermo_modify flush yes

run 500000
Neighbor list info ...
  1 neighbor list requests
  update every 20 steps, delay 0 steps, check no
  max neighbors/atom: 2000, page size: 100000
  master list distance cutoff = 2.8
  ghost atom cutoff = 2.8
  binsize = 1.4 -> bins = 7 7 7
Memory usage per processor = 3.32306 Mbytes
Step Press Volume Temp 
       0   -5.8097666          625          0.5 
    2000    -1.987275          625   0.33453291 
    4000   -1.2851285          625   0.38615158 
    6000  -0.87399621          625   0.43510999 
    8000  -0.80142064          625   0.42681568 
   10000    -1.208159          625   0.46591108 
   12000  -0.82059804          625   0.44872929 
   14000   -1.0027068          625   0.44713551 
   16000   -1.0582256          625    0.4624063 
   18000   -1.2009503          625   0.44172459 
   20000  -0.85092438          625    0.4498671 
   22000  -0.86422351          625   0.45358424 
   24000  -0.86882077          625    0.4657755 
   26000     -1.00937          625   0.46431393 
   28000  -0.85225707          625    0.4891149 
   30000  -0.86480385          625   0.45985514 
   32000  -0.70747817          625   0.45811836 
   34000  -0.82064091          625   0.48754168 
   36000  -0.84006497          625   0.46073281 
   38000  -0.68782714          625   0.47222752 
   40000  -0.82903974          625   0.50688128 
   42000   -1.1599487          625     0.479203 
   44000  -0.78733407          625   0.48986693 
   46000   -1.0443457          625   0.47800381 
   48000  -0.95330159          625    0.5010865 
   50000   -1.0552185          625   0.47049293 
   52000  -0.80667835          625   0.46118658 
   54000  -0.60506033          625   0.48912024 
   56000  -0.74441507          625   0.48126789 
   58000   -0.4651672          625   0.51212562 
   60000  -0.74699718          625   0.49441963 
   62000   -0.7629481          625   0.52011392 
   64000  -0.89996728          625   0.50030201 
   66000  -0.53213641          625   0.50006303 
   68000  -0.97868472          625   0.48669949 
   70000  -0.91769761          625   0.50936607 
   72000   -0.6716463          625   0.49816138 
   74000  -0.75611482          625   0.52443258 
   76000  -0.56640629          625   0.48916955 
   78000  -0.70200663          625   0.48317809 
   80000  -0.78005784          625   0.49490065 
   82000  -0.88673464          625   0.50787697 
   84000   -1.1834032          625   0.51774908 
   86000   -1.0332481          625   0.49630057 
   88000  -0.87140977          625   0.52362387 
   90000  -0.87451332          625   0.52661686 
   92000  -0.68597664          625   0.51378349 
   94000  -0.59148501          625   0.52632542 
   96000  -0.88049008          625   0.51112412 
   98000  -0.53432974          625   0.50992214 
  100000  -0.80220409          625   0.52074424 
  102000  -0.93883005          625   0.52156293 
  104000  -0.82947696          625   0.50186054 
  106000  -0.74735524          625   0.51050443 
  108000   -1.0581444          625   0.55488113 
  110000  -0.90812899          625   0.50452753 
  112000  -0.65841566          625   0.53707232 
  114000  -0.77879031          625   0.52334344 
  116000  -0.95745805          625   0.51586195 
  118000  -0.93315716          625   0.50681298 
  120000  -0.68923867          625   0.52156144 
  122000  -0.74262326          625   0.49380022 
  124000  -0.94787211          625   0.50810581 
  126000  -0.59763328          625   0.51415126 
  128000  -0.85661929          625   0.49765335 
  130000  -0.75209521          625   0.49838054 
  132000   -1.0399511          625   0.51437261 
  134000  -0.98092724          625    0.5102967 
  136000  -0.66273855          625   0.49922311 
  138000   -0.9983109          625   0.51761686 
  140000   -1.0640348          625   0.50566931 
  142000  -0.78534369          625   0.51068196 
  144000  -0.89343599          625    0.5321501 
  146000  -0.99181183          625    0.4781518 
  148000  -0.91238612          625   0.48690374 
  150000   -1.0171534          625    0.5014595 
  152000  -0.98941367          625   0.49368128 
  154000   -1.0389943          625   0.49886801 
  156000  -0.65632343          625   0.47607828 
  158000   -1.0492992          625   0.49104089 
  160000  -0.93953444          625   0.49537824 
  162000   -0.9274853          625   0.49670769 
  164000  -0.94251319          625   0.48701811 
  166000    -1.061957          625   0.49551699 
  168000   -1.1002964          625   0.49797093 
  170000   -1.0776674          625   0.49589888 
  172000  -0.98230019          625   0.48285002 
  174000    -0.953869          625   0.48653551 
  176000  -0.95773472          625   0.49267181 
  178000  -0.88445857          625   0.50538848 
  180000  -0.97863885          625   0.48735872 
  182000   -1.1717243          625   0.49559031 
  184000  -0.98498773          625   0.46865491 
  186000  -0.81862587          625   0.49488123 
  188000  -0.86705697          625   0.48117212 
  190000   -1.0727066          625   0.50696689 
  192000   -1.0215489          625   0.48541214 
  194000   -1.1320365          625   0.50062302 
  196000   -1.0247966          625   0.49830203 
  198000  -0.92529766          625   0.48233974 
  200000   -1.2308109          625   0.50832534 
  202000  -0.86069863          625   0.49817272 
  204000   -1.0073837          625   0.50975141 
  206000  -0.80773552          625   0.50567711 
  208000    -1.112855          625   0.52152525 
  210000   -1.0469321          625   0.50680411 
  212000  -0.61794863          625    0.4896551 
  214000  -0.92366906          625   0.50129021 
  216000    -1.047752          625   0.49751777 
  218000  -0.66094057          625   0.51275804 
  220000   -1.2250913          625   0.50883799 
  222000  -0.63671342          625   0.52488776 
  224000  -0.94613934          625   0.54639123 
  226000  -0.82722262          625   0.51484531 
  228000  -0.69577771          625   0.50117375 
  230000  -0.82795995          625   0.50635122 
  232000    -1.004023          625    0.4864702 
  234000  -0.96832478          625   0.52714562 
  236000  -0.95632005          625   0.50777088 
  238000  -0.73568542          625   0.48914617 
  240000  -0.79665462          625   0.49126808 
  242000  -0.69909965          625   0.53258874 
  244000  -0.73485118          625   0.51807964 
  246000   -1.0116575          625   0.54766724 
  248000   -0.5564284          625   0.50676022 
  250000  -0.51910836          625   0.52392288 
  252000  -0.76194646          625   0.49451855 
  254000  -0.84432755          625   0.49977611 
  256000  -0.98204358          625   0.51812814 
  258000  -0.96994903          625   0.52296036 
  260000  -0.81419144          625   0.48246969 
  262000  -0.86407148          625   0.52078253 
  264000  -0.97803669          625   0.51183012 
  266000  -0.98519376          625   0.52838798 
  268000  -0.68312077          625   0.50852909 
  270000  -0.70463081          625   0.49611727 
  272000  -0.97138954          625   0.49840094 
  274000  -0.81903426          625    0.5028679 
  276000  -0.74500202          625   0.49670655 
  278000    -1.268449          625   0.51492794 
  280000  -0.72523783          625   0.49950713 
  282000  -0.85224172          625   0.48301893 
  284000   -1.0355787          625   0.49955893 
  286000   -0.6628131          625    0.4990941 
  288000  -0.99988268          625   0.47728919 
  290000  -0.91757464          625    0.5176207 
  292000  -0.78229307          625   0.51435309 
  294000  -0.80669507          625   0.49182705 
  296000  -0.99580482          625   0.49442678 
  298000   -1.0145548          625   0.50199815 
  300000    -1.023035          625   0.47991088 
  302000  -0.91387994          625    0.5296174 
  304000   -1.0632266          625   0.48333347 
  306000  -0.92453187          625   0.49653776 
  308000   -1.0552084          625   0.49977243 
  310000   -1.0590664          625   0.51699296 
  312000  -0.91041534          625   0.50259037 
  314000   -1.0303296          625   0.51635172 
  316000  -0.76763657          625   0.49494187 
  318000    -1.068431          625   0.50578066 
  320000    -1.012287          625   0.52805637 
  322000   -0.8678023          625   0.53451447 
  324000  -0.91361077          625   0.50948723 
  326000   -1.0061433          625   0.49786409 
  328000  -0.86673606          625   0.50728776 
  330000   -1.0241633          625   0.50200755 
  332000  -0.94761546          625     0.527403 
  334000  -0.99601699          625   0.50346019 
  336000  -0.75478892          625   0.50250609 
  338000  -0.75935579          625   0.49919734 
  340000  -0.76581439          625   0.48893375 
  342000   -1.1381255          625   0.45476894 
  344000   -1.0169091          625   0.48534139 
  346000   -1.0382797          625   0.50858985 
  348000   -1.0052495          625   0.51045742 
  350000   -1.0133418          625   0.50715453 
  352000   -1.2562501          625   0.48984646 
  354000   -1.1961632          625   0.49607104 
  356000  -0.78181026          625   0.46634227 
  358000   -1.2561123          625   0.48717047 
  360000   -1.1820315          625   0.49036073 
  362000   -1.0611491          625   0.45268011 
  364000  -0.94730978          625   0.49316265 
  366000  -0.87203366          625   0.47187637 
  368000  -0.99556083          625   0.48926329 
  370000  -0.92246527          625   0.44934873 
  372000   -1.1618333          625   0.47784454 
  374000   -1.2155009          625    0.5025832 
  376000   -1.0155991          625   0.46857171 
  378000   -1.1041957          625   0.50390853 
  380000   -1.0466332          625   0.48273743 
  382000   -1.0360212          625   0.49237825 
  384000  -0.93229521          625   0.49029252 
  386000   -1.0934034          625   0.47975983 
  388000   -1.1248308          625   0.49058422 
  390000  -0.74713365          625    0.4642466 
  392000   -1.0151717          625   0.48657998 
  394000   -1.0290119          625   0.47264538 
  396000   -1.1140723          625   0.49291019 
  398000   -1.0477651          625   0.50616318 
  400000   -1.0906561          625   0.51026169 
  402000  -0.91771199          625   0.50293423 
  404000  -0.71546897          625   0.48615311 
  406000  -0.90973881          625   0.49494628 
  408000  -0.80332341          625   0.50139498 
  410000  -0.90721523          625   0.47292914 
  412000   -1.2338651          625   0.50461458 
  414000   -0.8867306          625   0.48939793 
  416000  -0.90242368          625   0.51796311 
  418000  -0.98738716          625   0.52630737 
  420000   -1.0493473          625   0.50832898 
  422000  -0.79514786          625   0.49758366 
  424000  -0.86874575          625   0.50674488 
  426000  -0.92053348          625   0.52262432 
  428000  -0.84394661          625   0.50735763 
  430000  -0.93368838          625   0.50933828 
  432000  -0.94134573          625   0.50844747 
  434000  -0.79111286          625   0.49861275 
  436000   -1.1018807          625   0.49064184 
  438000  -0.81369361          625   0.50179779 
  440000  -0.89445544          625   0.52814783 
  442000   -1.0147771          625   0.50434519 
  444000  -0.99381037          625   0.48985888 
  446000   -1.1321386          625    0.5216179 
  448000   -1.0160239          625   0.50576623 
  450000   -0.9486267          625    0.5257703 
  452000   -0.8527358          625   0.49156859 
  454000   -1.1039532          625   0.51693455 
  456000   -1.0032834          625   0.49350755 
  458000  -0.88438643          625   0.49618121 
  460000   -1.1288102          625   0.49547949 
  462000  -0.74731716          625   0.50296274 
  464000  -0.81063367          625   0.46979773 
  466000  -0.92701147          625   0.52172445 
  468000  -0.77426683          625    0.5201633 
  470000  -0.70643482          625   0.50787734 
  472000  -0.94276796          625   0.49365034 
  474000  -0.95700185          625   0.48906007 
  476000  -0.74542068          625   0.52068188 
  478000     -1.01015          625   0.50138611 
  480000  -0.92966302          625   0.50974763 
  482000  -0.75254518          625   0.52502342 
  484000   -1.0539257          625   0.49076421 
  486000   -1.0299626          625   0.50502146 
  488000   -0.7918753          625    0.4903562 
  490000  -0.88470224          625    0.4878281 
  492000   -1.0183286          625   0.52166543 
  494000  -0.85804903          625   0.50906235 
  496000  -0.98848074          625   0.51316762 
  498000  -0.92012562          625   0.53191398 
  500000  -0.74263833          625   0.50037823 
Loop time of 154.881 on 1 procs for 500000 steps with 500 atoms

Performance: 1394617.214 tau/day, 3228.281 timesteps/s
97.9% CPU use with 1 MPI tasks x no OpenMP threads

MPI task timing breakdown:
Section |  min time  |  avg time  |  max time  |%varavg| %total
---------------------------------------------------------------
Pair    | 125.97     | 125.97     | 125.97     |   0.0 | 81.33
Neigh   | 18.777     | 18.777     | 18.777     |   0.0 | 12.12
Comm    | 5.2176     | 5.2176     | 5.2176     |   0.0 |  3.37
Output  | 0.014875   | 0.014875   | 0.014875   |   0.0 |  0.01
Modify  | 3.9293     | 3.9293     | 3.9293     |   0.0 |  2.54
Other   |            | 0.9767     |            |       |  0.63

Nlocal:    500 ave 500 max 500 min
Histogram: 1 0 0 0 0 0 0 0 0 0
Nghost:    1932 ave 1932 max 1932 min
Histogram: 1 0 0 0 0 0 0 0 0 0
Neighs:    18338 ave 18338 max 18338 min
Histogram: 1 0 0 0 0 0 0 0 0 0

Total # of neighbors = 18338
Ave neighs/atom = 36.676
Neighbor list builds = 25000
Dangerous builds not checked
Total wall time: 0:02:34
