LAMMPS (19 Oct 2016)
# equation of state for LJ

variable temp equal 0.5
variable rho  equal 0.86

units lj
atom_style atomic

lattice    fcc ${rho}
lattice    fcc 0.86
Lattice spacing in x,y,z = 1.66925 1.66925 1.66925
region box block 0 5 0 5 0 5
create_box 1 box
Created orthogonal box = (0 0 0) to (8.34623 8.34623 8.34623)
  1 by 1 by 1 MPI processor grid
create_atoms 1 box
Created 500 atoms
mass       1 1.0

pair_style lj/cut 2.5
pair_coeff 1 1 1.0 1.0 2.5

velocity   all create ${temp} 87287
velocity   all create 0.5 87287

neighbor   0.3 bin
neigh_modify every 20 delay 0 check no

fix        1 all nvt temp ${temp} ${temp} 100
fix        1 all nvt temp 0.5 ${temp} 100
fix        1 all nvt temp 0.5 0.5 100
dump       1 all custom 70000 dump_t${temp}_r${rho}.lammpstrj id type x y z
dump       1 all custom 70000 dump_t0.5_r${rho}.lammpstrj id type x y z
dump       1 all custom 70000 dump_t0.5_r0.86.lammpstrj id type x y z
thermo     2000
thermo_style  custom step press vol temp
thermo_modify flush yes

run 500000
Neighbor list info ...
  1 neighbor list requests
  update every 20 steps, delay 0 steps, check no
  max neighbors/atom: 2000, page size: 100000
  master list distance cutoff = 2.8
  ghost atom cutoff = 2.8
  binsize = 1.4 -> bins = 6 6 6
Memory usage per processor = 3.32155 Mbytes
Step Press Volume Temp 
       0   -5.7473907    581.39535          0.5 
    2000   -3.8018696    581.39535   0.25901208 
    4000   -3.8383048    581.39535   0.27001699 
    6000    -3.780864    581.39535   0.26684314 
    8000   -3.8155977    581.39535   0.28264309 
   10000    -3.653192    581.39535   0.26535593 
   12000   -3.7593131    581.39535   0.28489325 
   14000   -3.6538386    581.39535   0.28587149 
   16000    -3.575476    581.39535   0.27931852 
   18000   -3.6281246    581.39535   0.29678793 
   20000   -3.6400801    581.39535   0.30117553 
   22000   -3.5426279    581.39535   0.30059296 
   24000    -3.629068    581.39535   0.31879263 
   26000   -3.5499086    581.39535    0.3179376 
   28000   -3.4679825    581.39535   0.32187743 
   30000   -3.3295096    581.39535   0.31453348 
   32000   -3.4180096    581.39535   0.32649402 
   34000    -3.336691    581.39535   0.32566625 
   36000   -3.4220489    581.39535   0.34584043 
   38000   -3.2344597    581.39535   0.34042883 
   40000   -3.2844105    581.39535   0.35159992 
   42000   -3.3027555    581.39535   0.36684718 
   44000   -3.0831938    581.39535    0.3528666 
   46000   -3.0093497    581.39535   0.35276005 
   48000   -3.2061792    581.39535   0.38765432 
   50000   -3.0788509    581.39535   0.38985357 
   52000   -3.0708348    581.39535   0.38979471 
   54000   -2.8706301    581.39535   0.37924033 
   56000   -2.8652353    581.39535    0.3923135 
   58000   -2.8120449    581.39535   0.39619941 
   60000    -2.731401    581.39535   0.39849297 
   62000   -2.7290217    581.39535   0.41043468 
   64000   -2.6415491    581.39535    0.4138331 
   66000   -2.4043521    581.39535   0.39367021 
   68000   -2.5319608    581.39535   0.42246566 
   70000   -2.5591053    581.39535   0.43089468 
   72000     -2.41509    581.39535   0.42679354 
   74000   -2.4937499    581.39535      0.44379 
   76000   -2.4871625    581.39535   0.45980827 
   78000   -2.4542294    581.39535   0.46190935 
   80000   -2.3845165    581.39535   0.46123795 
   82000    -2.315365    581.39535   0.46777495 
   84000   -2.2182186    581.39535    0.4647046 
   86000   -2.2282895    581.39535    0.4840596 
   88000    -2.247975    581.39535   0.49136723 
   90000   -2.1033629    581.39535   0.48642031 
   92000   -2.0135301    581.39535    0.4782943 
   94000   -2.2861198    581.39535   0.52894748 
   96000   -2.0522959    581.39535   0.49967817 
   98000   -2.1334288    581.39535   0.52165212 
  100000   -2.0013346    581.39535    0.5114052 
  102000   -2.0137552    581.39535   0.52013773 
  104000   -1.9760743    581.39535   0.52179981 
  106000   -2.0807723    581.39535   0.54266388 
  108000   -1.8388346    581.39535   0.52325854 
  110000   -1.7421723    581.39535   0.51705088 
  112000   -1.6968085    581.39535   0.50304975 
  114000   -1.8306682    581.39535    0.5278526 
  116000   -1.7647709    581.39535   0.53140085 
  118000   -1.7808579    581.39535   0.51917697 
  120000   -1.7852213    581.39535   0.52298359 
  122000   -1.7513731    581.39535   0.51954081 
  124000   -1.8667754    581.39535   0.54157389 
  126000   -1.8443039    581.39535   0.53844392 
  128000   -1.9405644    581.39535   0.54194645 
  130000   -1.8968963    581.39535   0.54119659 
  132000   -1.9971678    581.39535    0.5441341 
  134000   -1.8179671    581.39535   0.51190386 
  136000   -2.0386232    581.39535   0.54502442 
  138000   -1.9698012    581.39535   0.53302194 
  140000   -2.0037007    581.39535   0.52307536 
  142000   -2.1320712    581.39535   0.53739496 
  144000   -1.8950976    581.39535   0.50314289 
  146000   -2.1052104    581.39535   0.51717176 
  148000   -2.1156575    581.39535   0.51541888 
  150000   -2.2059725    581.39535   0.52082874 
  152000    -2.085945    581.39535   0.50502829 
  154000   -2.1509054    581.39535   0.49849047 
  156000   -2.1898073    581.39535   0.50411543 
  158000   -2.1269059    581.39535   0.48365171 
  160000   -2.1209695    581.39535    0.4847705 
  162000   -2.1327692    581.39535   0.47602381 
  164000   -2.0963504    581.39535   0.46695626 
  166000   -2.2440451    581.39535   0.48239123 
  168000   -2.4594339    581.39535   0.50711545 
  170000   -2.1826396    581.39535   0.47452611 
  172000   -2.2552507    581.39535   0.47460061 
  174000   -2.3054217    581.39535   0.48099004 
  176000   -2.3690087    581.39535   0.48504169 
  178000   -2.1887263    581.39535   0.46436635 
  180000   -2.2149192    581.39535   0.47014526 
  182000   -2.2894643    581.39535   0.47605075 
  184000   -2.3767561    581.39535   0.48406151 
  186000   -2.1733135    581.39535   0.45443428 
  188000    -2.313017    581.39535   0.47627025 
  190000   -2.2924571    581.39535   0.48082668 
  192000   -2.2456269    581.39535    0.4774503 
  194000   -2.1036287    581.39535   0.45823206 
  196000   -2.3600139    581.39535   0.49230754 
  198000    -2.147787    581.39535   0.47558576 
  200000   -2.1784884    581.39535   0.47890055 
  202000   -1.9955289    581.39535   0.46747971 
  204000   -2.0023042    581.39535   0.47044146 
  206000   -2.2277909    581.39535   0.50026799 
  208000   -2.0451578    581.39535   0.48324859 
  210000   -2.3140592    581.39535   0.52414411 
  212000   -2.2190845    581.39535   0.51595419 
  214000   -1.9428945    581.39535   0.48444341 
  216000   -2.1738519    581.39535   0.51607011 
  218000   -2.0636012    581.39535    0.5103445 
  220000   -2.1420622    581.39535   0.52662064 
  222000   -2.0151002    581.39535   0.51607422 
  224000   -1.9275735    581.39535   0.50827121 
  226000   -2.0588505    581.39535   0.52319992 
  228000    -1.992205    581.39535   0.52304146 
  230000    -1.904369    581.39535   0.51351073 
  232000   -2.0013915    581.39535   0.52337245 
  234000   -1.8903375    581.39535   0.51338543 
  236000   -1.8802889    581.39535   0.51619872 
  238000   -2.0349666    581.39535   0.53568021 
  240000   -1.9342224    581.39535   0.51701783 
  242000   -1.9088565    581.39535   0.51234262 
  244000   -2.0070206    581.39535   0.53487662 
  246000   -1.9111129    581.39535   0.52122419 
  248000   -2.0322836    581.39535   0.54108973 
  250000   -1.9815552    581.39535   0.52528457 
  252000   -1.8955842    581.39535   0.50771728 
  254000   -1.8559573    581.39535   0.50518963 
  256000   -2.0693167    581.39535   0.52234498 
  258000   -2.1188777    581.39535   0.52711196 
  260000   -2.0479224    581.39535   0.51942777 
  262000   -2.0156521    581.39535   0.51410111 
  264000    -2.051151    581.39535   0.51110649 
  266000   -1.9619582    581.39535   0.50068288 
  268000   -1.9540881    581.39535   0.48189997 
  270000   -2.0616852    581.39535   0.49289905 
  272000   -1.9810111    581.39535   0.48124034 
  274000   -1.9107994    581.39535   0.47351547 
  276000   -2.0018113    581.39535   0.48589289 
  278000   -2.3067637    581.39535   0.51101186 
  280000   -2.2381132    581.39535   0.50193001 
  282000   -2.1831604    581.39535   0.49799842 
  284000   -2.0767683    581.39535   0.47361117 
  286000   -2.1581925    581.39535   0.48511262 
  288000   -2.2981558    581.39535   0.49870903 
  290000   -2.1359511    581.39535   0.47481299 
  292000   -2.2081321    581.39535   0.48209362 
  294000   -2.3039157    581.39535   0.49357537 
  296000   -2.2818563    581.39535   0.48569659 
  298000   -2.1264288    581.39535   0.46941795 
  300000   -2.2954944    581.39535   0.48799274 
  302000   -2.1693755    581.39535   0.47201881 
  304000   -2.2114101    581.39535     0.480465 
  306000   -2.1184883    581.39535   0.46732888 
  308000   -2.2074739    581.39535   0.47828857 
  310000   -2.2962583    581.39535   0.49169615 
  312000   -2.1741801    581.39535   0.47876771 
  314000   -2.0857703    581.39535   0.47050401 
  316000   -2.0539844    581.39535    0.4726386 
  318000   -2.2530933    581.39535   0.49370369 
  320000    -1.967548    581.39535   0.46655978 
  322000   -2.1813309    581.39535   0.48813385 
  324000   -1.9984729    581.39535   0.46411485 
  326000    -2.152874    581.39535   0.49298573 
  328000   -2.1681473    581.39535   0.50541072 
  330000   -1.9454851    581.39535   0.47861062 
  332000   -2.1972276    581.39535   0.51445494 
  334000   -2.2541936    581.39535   0.51892506 
  336000   -1.9134606    581.39535   0.47675083 
  338000   -1.8938529    581.39535   0.48341142 
  340000   -2.2178408    581.39535   0.53291757 
  342000   -2.0938638    581.39535   0.51755156 
  344000   -2.1197335    581.39535   0.52876199 
  346000    -1.930876    581.39535   0.50642688 
  348000    -1.981114    581.39535   0.51362352 
  350000   -2.0150232    581.39535   0.51652956 
  352000   -2.0355257    581.39535   0.52630683 
  354000   -1.9944523    581.39535   0.51425452 
  356000   -1.7744716    581.39535   0.48854771 
  358000   -2.0959895    581.39535   0.53535327 
  360000   -1.8258319    581.39535   0.49379329 
  362000   -1.9259542    581.39535   0.51220681 
  364000   -2.0751904    581.39535   0.53655575 
  366000   -2.0708999    581.39535   0.52709099 
  368000   -2.1614661    581.39535   0.54249155 
  370000   -2.0340665    581.39535   0.52739894 
  372000   -2.0376705    581.39535   0.52041591 
  374000   -2.0742474    581.39535   0.52258462 
  376000   -1.9728036    581.39535   0.50065211 
  378000   -1.7931117    581.39535    0.4861996 
  380000   -2.0667697    581.39535   0.51389576 
  382000   -2.0868126    581.39535   0.51576541 
  384000   -2.1571252    581.39535   0.51909446 
  386000   -1.9283211    581.39535   0.48381312 
  388000   -2.1027058    581.39535   0.50647266 
  390000   -2.1478561    581.39535   0.50540957 
  392000   -2.1786108    581.39535   0.51357452 
  394000   -2.2473525    581.39535   0.50946091 
  396000    -2.125131    581.39535   0.49330163 
  398000   -2.1735263    581.39535   0.49255424 
  400000    -2.131016    581.39535   0.49092079 
  402000   -1.9714401    581.39535   0.46977307 
  404000   -2.3906827    581.39535   0.51535521 
  406000   -2.3113553    581.39535   0.50862557 
  408000   -2.2907364    581.39535    0.4958491 
  410000   -2.2479254    581.39535   0.49136982 
  412000   -2.2038813    581.39535   0.48456657 
  414000    -2.168216    581.39535   0.47968359 
  416000   -2.2995453    581.39535   0.49451858 
  418000   -2.1144297    581.39535   0.47897817 
  420000   -2.1423198    581.39535   0.47972009 
  422000   -2.2072936    581.39535    0.4854199 
  424000   -2.1433487    581.39535   0.47153027 
  426000   -2.1970663    581.39535   0.49146012 
  428000   -2.1292747    581.39535   0.47540262 
  430000   -2.1156716    581.39535   0.47492919 
  432000   -2.1476091    581.39535   0.47685472 
  434000   -2.1410254    581.39535    0.4850394 
  436000   -2.2500133    581.39535   0.49734034 
  438000   -2.1123185    581.39535   0.49261011 
  440000    -2.067172    581.39535   0.48943161 
  442000   -2.1064709    581.39535   0.49325195 
  444000   -2.1299469    581.39535   0.50305321 
  446000   -2.1448443    581.39535   0.50345574 
  448000   -2.0147952    581.39535   0.49329432 
  450000   -2.0383798    581.39535   0.49473458 
  452000   -2.1007681    581.39535   0.50764617 
  454000   -1.9155786    581.39535   0.49080471 
  456000   -1.7848316    581.39535   0.48241665 
  458000   -1.9435922    581.39535   0.50179813 
  460000   -1.9861572    581.39535    0.5136952 
  462000   -1.9772025    581.39535   0.50520022 
  464000   -1.9868064    581.39535   0.51473511 
  466000   -2.0079967    581.39535    0.5227917 
  468000   -2.0294014    581.39535   0.52064957 
  470000   -2.0120384    581.39535   0.51777983 
  472000   -1.7459446    581.39535   0.48943668 
  474000   -1.7916395    581.39535   0.49887603 
  476000   -1.9792456    581.39535   0.52041029 
  478000   -2.0145158    581.39535   0.51141911 
  480000   -2.1525473    581.39535   0.53167698 
  482000   -2.0732151    581.39535   0.52881187 
  484000     -2.07555    581.39535   0.52968924 
  486000   -2.1192809    581.39535   0.52350908 
  488000   -2.0850776    581.39535   0.51522195 
  490000   -2.0061126    581.39535   0.49938992 
  492000   -2.1121505    581.39535   0.52088542 
  494000   -2.1187704    581.39535    0.5131521 
  496000    -1.869189    581.39535   0.47993225 
  498000    -2.109895    581.39535   0.50484058 
  500000   -2.0655099    581.39535   0.48960332 
Loop time of 175.298 on 1 procs for 500000 steps with 500 atoms

Performance: 1232184.059 tau/day, 2852.278 timesteps/s
95.4% CPU use with 1 MPI tasks x no OpenMP threads

MPI task timing breakdown:
Section |  min time  |  avg time  |  max time  |%varavg| %total
---------------------------------------------------------------
Pair    | 140.03     | 140.03     | 140.03     |   0.0 | 79.88
Neigh   | 24.114     | 24.114     | 24.114     |   0.0 | 13.76
Comm    | 5.6662     | 5.6662     | 5.6662     |   0.0 |  3.23
Output  | 0.025694   | 0.025694   | 0.025694   |   0.0 |  0.01
Modify  | 4.4        | 4.4        | 4.4        |   0.0 |  2.51
Other   |            | 1.064      |            |       |  0.61

Nlocal:    500 ave 500 max 500 min
Histogram: 1 0 0 0 0 0 0 0 0 0
Nghost:    1956 ave 1956 max 1956 min
Histogram: 1 0 0 0 0 0 0 0 0 0
Neighs:    19231 ave 19231 max 19231 min
Histogram: 1 0 0 0 0 0 0 0 0 0

Total # of neighbors = 19231
Ave neighs/atom = 38.462
Neighbor list builds = 25000
Dangerous builds not checked
Total wall time: 0:02:55
