LAMMPS (19 Oct 2016)
# equation of state for LJ

variable temp equal 0.5
variable rho  equal 1.0

units lj
atom_style atomic

lattice    fcc ${rho}
lattice    fcc 1
Lattice spacing in x,y,z = 1.5874 1.5874 1.5874
region box block 0 5 0 5 0 5
create_box 1 box
Created orthogonal box = (0 0 0) to (7.93701 7.93701 7.93701)
  1 by 1 by 1 MPI processor grid
create_atoms 1 box
Created 500 atoms
mass       1 1.0

pair_style lj/cut 2.5
pair_coeff 1 1 1.0 1.0 2.5

velocity   all create ${temp} 87287
velocity   all create 0.5 87287

neighbor   0.3 bin
neigh_modify every 20 delay 0 check no

fix        1 all nvt temp ${temp} ${temp} 100
fix        1 all nvt temp 0.5 ${temp} 100
fix        1 all nvt temp 0.5 0.5 100
dump       1 all custom 70000 dump_t${temp}_r${rho}.lammpstrj id type x y z
dump       1 all custom 70000 dump_t0.5_r${rho}.lammpstrj id type x y z
dump       1 all custom 70000 dump_t0.5_r1.lammpstrj id type x y z
thermo     2000
thermo_style  custom step press vol temp
thermo_modify flush yes

run 500000
Neighbor list info ...
  1 neighbor list requests
  update every 20 steps, delay 0 steps, check no
  max neighbors/atom: 2000, page size: 100000
  master list distance cutoff = 2.8
  ghost atom cutoff = 2.8
  binsize = 1.4 -> bins = 6 6 6
Memory usage per processor = 3.32155 Mbytes
Step Press Volume Temp 
       0   -2.8945748          500          0.5 
    2000   -1.2217428          500   0.25810763 
    4000    -1.245918          500   0.26507339 
    6000   -1.2288555          500    0.2694164 
    8000    -1.237575          500   0.27648958 
   10000    -1.106791          500   0.26809369 
   12000   -1.0145697          500   0.26184986 
   14000   -1.1428267          500   0.28395366 
   16000   -1.0160124          500   0.27678796 
   18000   -1.0180021          500     0.284786 
   20000   -1.0200847          500   0.29361901 
   22000  -0.95437372          500   0.29408092 
   24000  -0.99475437          500   0.30738728 
   26000  -0.84244735          500   0.29575623 
   28000  -0.85746709          500   0.30817118 
   30000  -0.79958048          500   0.30955367 
   32000  -0.67213089          500   0.30461066 
   34000  -0.82177512          500   0.33459226 
   36000  -0.66315983          500   0.32508185 
   38000  -0.55117311          500   0.32284297 
   40000   -0.5804489          500   0.33761355 
   42000  -0.52941322          500   0.34077957 
   44000  -0.43990604          500   0.33894315 
   46000  -0.51048435          500    0.3605262 
   48000  -0.41114177          500   0.35886393 
   50000  -0.32833658          500   0.36082318 
   52000  -0.16256213          500   0.35233994 
   54000  -0.20416506          500   0.36767583 
   56000    -0.182307          500   0.37683549 
   58000  -0.15796291          500   0.38626808 
   60000 -0.048557893          500   0.38341943 
   62000 -0.048402331          500   0.39551559 
   64000 -0.041394391          500   0.40661051 
   66000 0.0063473526          500   0.41508242 
   68000   0.13205008          500    0.4123436 
   70000   0.08132669          500   0.43101742 
   72000   0.21797653          500   0.42587618 
   74000   0.32694081          500   0.42187564 
   76000    0.2641724          500   0.44163184 
   78000    0.2825062          500    0.4486925 
   80000   0.33095334          500   0.45725993 
   82000   0.49876394          500   0.44422658 
   84000   0.59167094          500   0.44712667 
   86000   0.62025451          500   0.45284196 
   88000   0.62959414          500   0.46293365 
   90000   0.53631723          500   0.48516161 
   92000   0.61808452          500   0.48603534 
   94000   0.72068722          500   0.48634667 
   96000   0.79164475          500   0.48403934 
   98000    0.9166792          500   0.47614409 
  100000   0.84083996          500   0.49125312 
  102000   0.76695547          500   0.51468805 
  104000   0.89775976          500   0.50402488 
  106000   0.95502224          500    0.5059657 
  108000   0.81274538          500   0.53166302 
  110000   0.95819323          500   0.51673538 
  112000    1.1733342          500   0.50189574 
  114000    1.0421862          500   0.51927842 
  116000    1.1473602          500   0.51171225 
  118000    1.1182483          500   0.51818837 
  120000    1.0416692          500   0.53346678 
  122000     1.245158          500    0.5050845 
  124000    1.1209794          500   0.52838698 
  126000    1.0736806          500   0.53319537 
  128000    1.2541369          500   0.51275003 
  130000    1.0702077          500   0.53282341 
  132000    1.1279766          500   0.52384494 
  134000    1.0992677          500   0.52825192 
  136000   0.97678156          500   0.54138262 
  138000   0.99617503          500   0.53696272 
  140000    1.0871063          500   0.51659176 
  142000   0.86729676          500   0.54226015 
  144000   0.95601009          500   0.52347535 
  146000   0.92484888          500   0.52376852 
  148000   0.97687566          500   0.51146473 
  150000   0.98831171          500   0.50137623 
  152000   0.76325399          500   0.52409419 
  154000    0.8540026          500   0.50765516 
  156000   0.75580344          500   0.51441101 
  158000    0.6848187          500   0.51453573 
  160000   0.83301804          500   0.48983439 
  162000   0.78100187          500   0.49174003 
  164000   0.61938834          500   0.50549138 
  166000   0.54276722          500   0.51051507 
  168000    0.6595686          500   0.49030537 
  170000   0.71063185          500   0.47940486 
  172000   0.65344703          500    0.4831511 
  174000   0.60792481          500   0.48600123 
  176000   0.57051411          500   0.48863559 
  178000   0.54419503          500   0.48619327 
  180000   0.68877308          500   0.46365519 
  182000   0.70881936          500   0.46283913 
  184000   0.61798083          500    0.4688199 
  186000   0.65353338          500   0.46426725 
  188000   0.62574724          500   0.46752303 
  190000    0.6226142          500   0.46798863 
  192000   0.62522684          500   0.46859182 
  194000   0.39477289          500   0.50164528 
  196000   0.45255212          500   0.49342386 
  198000   0.36235028          500   0.50603645 
  200000   0.58646181          500   0.47775876 
  202000   0.61838597          500   0.47915872 
  204000   0.55532925          500   0.49485521 
  206000   0.47693475          500   0.50610148 
  208000   0.69899527          500   0.48257057 
  210000    0.7797138          500   0.47567261 
  212000   0.78230076          500   0.48207445 
  214000   0.88050891          500   0.47338976 
  216000   0.67158637          500   0.50684216 
  218000   0.81418381          500   0.49032346 
  220000   0.68264867          500   0.51353369 
  222000   0.84866637          500   0.49660201 
  224000   0.85897332          500   0.49980851 
  226000   0.97999785          500    0.4868006 
  228000   0.94063634          500   0.49651376 
  230000    1.0385705          500   0.48727246 
  232000   0.94610526          500    0.5065451 
  234000   0.87014693          500   0.52148025 
  236000    1.0023825          500   0.50740353 
  238000    1.1087436          500   0.49442381 
  240000    1.0643383          500   0.50519472 
  242000    1.0784969          500   0.50160466 
  244000    1.0147932          500   0.51474832 
  246000   0.89660858          500   0.52917302 
  248000    1.0831006          500   0.50630145 
  250000   0.87433899          500    0.5339331 
  252000     1.089738          500   0.50551915 
  254000    0.8948915          500   0.53165766 
  256000   0.85087057          500    0.5372443 
  258000    1.0888514          500   0.49914535 
  260000   0.81146647          500   0.53337832 
  262000   0.86574097          500   0.52614365 
  264000   0.78898521          500   0.53523394 
  266000   0.97281602          500   0.50391099 
  268000    1.0735395          500   0.48646319 
  270000    0.9363741          500   0.50211697 
  272000   0.89389085          500   0.50253784 
  274000   0.96541987          500     0.487438 
  276000   0.75302033          500   0.51280963 
  278000   0.82031197          500   0.50226665 
  280000   0.88034505          500   0.48689497 
  282000   0.75300857          500    0.4986846 
  284000   0.78551502          500   0.49227139 
  286000   0.68145684          500    0.5019937 
  288000   0.68313799          500   0.49912708 
  290000   0.83854919          500   0.47130829 
  292000   0.58848208          500   0.50004648 
  294000   0.66390461          500   0.49009664 
  296000   0.65998437          500   0.48702377 
  298000   0.62552686          500   0.48814609 
  300000   0.75918084          500   0.47047047 
  302000   0.62295295          500   0.48365819 
  304000   0.59393448          500   0.48554803 
  306000   0.68699652          500   0.47281469 
  308000   0.59647977          500   0.48503565 
  310000   0.82350863          500   0.45385701 
  312000   0.66271531          500   0.47684376 
  314000   0.56211091          500   0.49053407 
  316000   0.51774654          500   0.49901057 
  318000   0.54325522          500   0.49864319 
  320000   0.60784304          500   0.48949037 
  322000   0.65249419          500   0.48507328 
  324000   0.60198958          500   0.49627377 
  326000   0.74733733          500   0.47597101 
  328000   0.49276877          500    0.5158059 
  330000   0.58289508          500   0.50932856 
  332000       0.7122          500   0.49317946 
  334000   0.83752598          500   0.47959762 
  336000   0.71650948          500    0.5002625 
  338000   0.72004093          500   0.50356799 
  340000   0.76415602          500   0.50184985 
  342000   0.72795782          500   0.50856392 
  344000   0.62996452          500   0.52977296 
  346000   0.85584795          500   0.49678395 
  348000   0.84198034          500   0.50411897 
  350000   0.91534764          500   0.49915814 
  352000   0.94393106          500   0.49718235 
  354000   0.92189477          500   0.50543017 
  356000    0.8876904          500   0.51148701 
  358000    1.0217625          500    0.4944497 
  360000   0.82240108          500   0.52286837 
  362000   0.90851459          500   0.51555082 
  364000   0.91019922          500   0.51753211 
  366000   0.94272489          500   0.51272897 
  368000   0.94051858          500   0.51634597 
  370000   0.84967634          500    0.5251836 
  372000   0.89639912          500   0.52346509 
  374000   0.89489055          500   0.52035315 
  376000    1.0614581          500   0.49822494 
  378000    0.8748291          500   0.52323386 
  380000   0.81637455          500   0.52992015 
  382000   0.82732707          500   0.52610525 
  384000   0.95673404          500   0.50480928 
  386000   0.70677766          500   0.53623705 
  388000   0.91447914          500   0.50675265 
  390000   0.74687772          500   0.52552366 
  392000    0.7893906          500   0.51882252 
  394000   0.79542681          500   0.50949469 
  396000   0.76680407          500   0.50808669 
  398000   0.72519069          500   0.51394998 
  400000   0.82374868          500   0.49419061 
  402000   0.72020407          500    0.5048615 
  404000   0.78507895          500    0.4921485 
  406000   0.75364367          500   0.49521449 
  408000    0.6769858          500   0.50126144 
  410000   0.67952688          500   0.49710876 
  412000   0.73113888          500   0.48812384 
  414000   0.75033602          500   0.48511538 
  416000   0.78266171          500    0.4758082 
  418000    0.6812336          500   0.48988096 
  420000   0.61197356          500   0.49291747 
  422000   0.85401669          500   0.46079884 
  424000   0.61208594          500   0.49054772 
  426000   0.62407121          500   0.49243613 
  428000   0.56960315          500   0.49618041 
  430000   0.49754796          500   0.50723968 
  432000   0.51875814          500   0.50318244 
  434000   0.66229553          500   0.48545524 
  436000   0.84711903          500    0.4584032 
  438000    0.6405292          500    0.4873704 
  440000    0.6934112          500   0.48283087 
  442000   0.62266598          500   0.49570684 
  444000   0.68553538          500   0.49032064 
  446000   0.58184077          500    0.5054007 
  448000   0.77221041          500   0.48313742 
  450000   0.82706291          500   0.47568423 
  452000   0.67025288          500   0.50363778 
  454000   0.54344585          500   0.52205731 
  456000    0.6690192          500   0.51048466 
  458000   0.78134681          500   0.49772455 
  460000   0.86324506          500   0.49120547 
  462000    0.8053093          500   0.50525412 
  464000    1.0638658          500   0.46923598 
  466000   0.70380409          500   0.52330867 
  468000   0.88807598          500   0.50310647 
  470000   0.89504928          500   0.50463341 
  472000   0.91353226          500   0.50591272 
  474000     0.799333          500   0.52272819 
  476000   0.66881978          500   0.54414658 
  478000   0.87508707          500   0.51369467 
  480000   0.83401697          500   0.52576063 
  482000   0.96220144          500   0.50776583 
  484000   0.79389601          500    0.5287653 
  486000   0.77621421          500   0.53401281 
  488000    0.9864718          500   0.50772356 
  490000   0.99898059          500   0.50679771 
  492000   0.91249239          500   0.51283347 
  494000   0.99407257          500   0.49987139 
  496000   0.94790656          500   0.50710101 
  498000   0.89293377          500   0.51616025 
  500000   0.76586674          500   0.52860372 
Loop time of 208.291 on 1 procs for 500000 steps with 500 atoms

Performance: 1037012.986 tau/day, 2400.493 timesteps/s
96.0% CPU use with 1 MPI tasks x no OpenMP threads

MPI task timing breakdown:
Section |  min time  |  avg time  |  max time  |%varavg| %total
---------------------------------------------------------------
Pair    | 168.14     | 168.14     | 168.14     |   0.0 | 80.73
Neigh   | 27.822     | 27.822     | 27.822     |   0.0 | 13.36
Comm    | 6.4227     | 6.4227     | 6.4227     |   0.0 |  3.08
Output  | 0.041005   | 0.041005   | 0.041005   |   0.0 |  0.02
Modify  | 4.6465     | 4.6465     | 4.6465     |   0.0 |  2.23
Other   |            | 1.214      |            |       |  0.58

Nlocal:    500 ave 500 max 500 min
Histogram: 1 0 0 0 0 0 0 0 0 0
Nghost:    1956 ave 1956 max 1956 min
Histogram: 1 0 0 0 0 0 0 0 0 0
Neighs:    21140 ave 21140 max 21140 min
Histogram: 1 0 0 0 0 0 0 0 0 0

Total # of neighbors = 21140
Ave neighs/atom = 42.28
Neighbor list builds = 25000
Dangerous builds not checked
Total wall time: 0:03:28
