LAMMPS (19 Oct 2016)
# equation of state for LJ

variable temp equal 1.8
variable rho  equal 0.5

units lj
atom_style atomic

lattice    fcc ${rho}
lattice    fcc 0.5
Lattice spacing in x,y,z = 2 2 2
region box block 0 5 0 5 0 5
create_box 1 box
Created orthogonal box = (0 0 0) to (10 10 10)
  1 by 1 by 1 MPI processor grid
create_atoms 1 box
Created 500 atoms
mass       1 1.0

pair_style lj/cut 2.5
pair_coeff 1 1 1.0 1.0 2.5

velocity   all create ${temp} 87287
velocity   all create 1.8 87287

neighbor   0.3 bin
neigh_modify every 20 delay 0 check no

fix        1 all nvt temp ${temp} ${temp} 100
fix        1 all nvt temp 1.8 ${temp} 100
fix        1 all nvt temp 1.8 1.8 100
dump       1 all custom 70000 dump_t${temp}_r${rho}.lammpstrj id type x y z
dump       1 all custom 70000 dump_t1.8_r${rho}.lammpstrj id type x y z
dump       1 all custom 70000 dump_t1.8_r0.5.lammpstrj id type x y z
thermo     2000
thermo_style  custom step press vol temp
thermo_modify flush yes

run 500000
Neighbor list info ...
  1 neighbor list requests
  update every 20 steps, delay 0 steps, check no
  max neighbors/atom: 2000, page size: 100000
  master list distance cutoff = 2.8
  ghost atom cutoff = 2.8
  binsize = 1.4 -> bins = 8 8 8
Memory usage per processor = 3.29189 Mbytes
Step Press Volume Temp 
       0   -1.7536052         1000          1.8 
    2000   0.97265262         1000    1.7873083 
    4000    1.1202864         1000     1.759027 
    6000    1.0440965         1000    1.7546889 
    8000    1.1063892         1000    1.7526912 
   10000   0.90269371         1000     1.768187 
   12000   0.97727098         1000    1.7100199 
   14000   0.90385461         1000    1.7288063 
   16000    1.1871676         1000    1.7067213 
   18000    1.2131704         1000    1.6841905 
   20000   0.96822096         1000    1.7152418 
   22000   0.95696074         1000    1.7235816 
   24000   0.91378943         1000    1.7057493 
   26000    1.0676236         1000    1.7329998 
   28000    1.0824099         1000    1.7490755 
   30000   0.88847991         1000    1.7926904 
   32000    1.2399925         1000    1.7409423 
   34000    1.1030906         1000    1.7634008 
   36000   0.88957839         1000    1.7955909 
   38000    1.1363329         1000    1.7608838 
   40000    1.1598335         1000    1.7234802 
   42000   0.97455689         1000    1.7752751 
   44000    0.7808863         1000    1.8185772 
   46000    1.0917398         1000    1.7682363 
   48000   0.76864447         1000    1.8193422 
   50000    1.1232493         1000    1.7385945 
   52000   0.84215815         1000    1.8008998 
   54000    1.2727984         1000    1.6791561 
   56000   0.91805719         1000    1.7540263 
   58000   0.86672036         1000    1.7178668 
   60000   0.98593833         1000    1.7486307 
   62000    1.0594483         1000    1.7284862 
   64000    1.0752458         1000    1.7137906 
   66000   0.92190644         1000    1.7734899 
   68000   0.82086766         1000    1.7525644 
   70000    1.1184865         1000    1.7016383 
   72000   0.88472428         1000    1.7680567 
   74000    1.0327676         1000    1.7404121 
   76000   0.85293143         1000    1.7826335 
   78000   0.75830459         1000    1.7564923 
   80000    0.8617227         1000    1.7884183 
   82000     0.904541         1000    1.7394621 
   84000    1.1895363         1000    1.7381605 
   86000    1.0359416         1000    1.7556301 
   88000    1.1485643         1000    1.7192517 
   90000   0.87680171         1000    1.7483583 
   92000   0.92184513         1000    1.7551814 
   94000   0.73525078         1000    1.7887072 
   96000    0.8270619         1000    1.7902016 
   98000    1.0071741         1000    1.7428271 
  100000   0.84829424         1000    1.7621759 
  102000   0.89509876         1000    1.7520912 
  104000    1.1169196         1000    1.7309056 
  106000    1.0166658         1000    1.7548566 
  108000    1.0843524         1000    1.7205766 
  110000   0.96778271         1000    1.7221652 
  112000    1.1735026         1000    1.6966482 
  114000    1.1851933         1000    1.7121484 
  116000    1.0673922         1000    1.7397684 
  118000   0.92656121         1000    1.7445505 
  120000   0.94157535         1000    1.7621087 
  122000   0.94272619         1000     1.753089 
  124000   0.99220817         1000     1.731355 
  126000   0.93547288         1000    1.7600492 
  128000    1.2057969         1000    1.7048375 
  130000    1.0269488         1000    1.7203586 
  132000   0.96117652         1000    1.7555572 
  134000   0.96653033         1000     1.711328 
  136000    1.1425339         1000    1.7372518 
  138000   0.81965359         1000    1.7654678 
  140000    1.0929762         1000    1.7254945 
  142000    1.0531919         1000    1.7261681 
  144000   0.98652011         1000    1.7225482 
  146000    1.0138263         1000    1.7302857 
  148000   0.92719724         1000    1.7508923 
  150000    1.0729313         1000    1.7093068 
  152000   0.82217944         1000    1.7497697 
  154000   0.99766648         1000    1.7535774 
  156000    1.0500296         1000    1.7345724 
  158000   0.89448093         1000    1.7381556 
  160000   0.90346244         1000    1.7674334 
  162000    1.1182269         1000    1.7097489 
  164000    1.1576845         1000    1.6972995 
  166000   0.87175542         1000    1.7421542 
  168000    1.0960933         1000    1.7005374 
  170000   0.97123815         1000    1.7406345 
  172000   0.79518621         1000    1.7645631 
  174000     1.082023         1000    1.7238058 
  176000   0.91463025         1000    1.7423265 
  178000   0.96445882         1000    1.7097509 
  180000   0.83602689         1000    1.7742218 
  182000    1.1326619         1000     1.736467 
  184000    1.0148309         1000    1.7353191 
  186000   0.99156001         1000    1.7063071 
  188000    1.0322697         1000    1.6976814 
  190000    1.1942148         1000    1.6873736 
  192000   0.94362029         1000    1.7524446 
  194000     1.214125         1000    1.7165215 
  196000   0.92488146         1000    1.7490402 
  198000    1.0816698         1000    1.7307396 
  200000    1.1303659         1000    1.7036512 
  202000   0.91805811         1000    1.7448297 
  204000    0.9000881         1000    1.7534275 
  206000   0.99874349         1000      1.73044 
  208000   0.84313207         1000    1.7496091 
  210000   0.84080602         1000    1.7501636 
  212000   0.85664444         1000    1.7587155 
  214000    1.1226144         1000    1.6962867 
  216000    1.0696114         1000    1.7132098 
  218000   0.92930322         1000    1.7389725 
  220000    0.8227605         1000     1.765388 
  222000   0.96626538         1000    1.7331193 
  224000   0.94992335         1000    1.7485489 
  226000    0.9488765         1000    1.7679073 
  228000    1.1033195         1000    1.6871391 
  230000    1.1096036         1000    1.7296955 
  232000    1.0271382         1000    1.7316355 
  234000     1.061935         1000    1.7209368 
  236000    1.2254874         1000    1.6831679 
  238000   0.96727704         1000    1.7708905 
  240000    1.0256188         1000      1.69735 
  242000   0.87382024         1000    1.7456277 
  244000   0.91527563         1000    1.7632928 
  246000   0.92728525         1000    1.7511852 
  248000   0.91492837         1000    1.7743268 
  250000   0.91686168         1000    1.7632644 
  252000     0.938257         1000    1.7085627 
  254000   0.94246224         1000    1.7461247 
  256000   0.89988319         1000    1.7280861 
  258000    1.3689735         1000    1.6682581 
  260000   0.90262464         1000     1.768927 
  262000   0.89319663         1000    1.7360665 
  264000   0.96499975         1000    1.7537014 
  266000   0.90759803         1000    1.7480597 
  268000   0.91816641         1000    1.7412494 
  270000   0.80339889         1000    1.7480025 
  272000   0.98273431         1000    1.7734122 
  274000   0.90533841         1000    1.7289817 
  276000    1.1454521         1000     1.708234 
  278000   0.98778316         1000     1.723845 
  280000    1.1376385         1000    1.6693222 
  282000    1.3106517         1000    1.7151086 
  284000    1.1371009         1000    1.7259989 
  286000   0.94248613         1000     1.742025 
  288000    0.9368095         1000    1.7276382 
  290000   0.77329555         1000    1.7585143 
  292000    1.0378152         1000    1.7165408 
  294000   0.89603526         1000    1.7455762 
  296000   0.92262643         1000    1.7452922 
  298000    1.0102066         1000     1.738714 
  300000    1.1087159         1000    1.7050807 
  302000   0.88986248         1000    1.7473909 
  304000    1.1958419         1000    1.7405457 
  306000    1.0594802         1000    1.7033346 
  308000   0.86382506         1000    1.7607091 
  310000    1.0764861         1000    1.7274043 
  312000   0.95118875         1000    1.7363644 
  314000    1.0701979         1000      1.72369 
  316000   0.86032009         1000    1.7621291 
  318000   0.91026626         1000    1.7509071 
  320000    1.0243916         1000    1.7473404 
  322000    1.3034116         1000    1.6569375 
  324000   0.89978644         1000    1.7230168 
  326000    1.2462695         1000     1.702059 
  328000   0.94663344         1000     1.736875 
  330000    1.2845582         1000    1.7038295 
  332000    1.1563341         1000    1.7243377 
  334000    0.9346133         1000    1.7122523 
  336000    1.2283886         1000    1.7044001 
  338000    0.8437472         1000    1.7758047 
  340000    1.1059786         1000     1.709666 
  342000    1.1570655         1000    1.7337005 
  344000    0.8614711         1000     1.741984 
  346000    1.0151105         1000    1.7484483 
  348000   0.89643286         1000     1.777874 
  350000    1.2202568         1000    1.7176102 
  352000   0.98001717         1000    1.7634462 
  354000   0.87541375         1000    1.7753142 
  356000   0.89082036         1000    1.7762371 
  358000   0.83275263         1000    1.7458796 
  360000    0.9262986         1000    1.7364636 
  362000   0.88731509         1000     1.708117 
  364000   0.97755785         1000    1.7581662 
  366000    1.0417224         1000    1.6934051 
  368000   0.64759687         1000    1.8122789 
  370000    0.9106884         1000    1.7343894 
  372000   0.96190585         1000    1.7309969 
  374000    1.0682683         1000    1.7230056 
  376000    1.0130972         1000    1.7148298 
  378000     1.009151         1000    1.7329597 
  380000    1.2456569         1000    1.6830392 
  382000    1.1357153         1000    1.6843647 
  384000     1.079806         1000    1.7070844 
  386000   0.80005282         1000    1.7598145 
  388000    1.0082942         1000    1.7188052 
  390000    1.0789281         1000    1.7149245 
  392000   0.93506709         1000    1.7641877 
  394000    1.0862546         1000    1.7263656 
  396000    1.0172639         1000    1.7466583 
  398000    1.0731807         1000    1.7483891 
  400000    1.0107851         1000    1.7529367 
  402000    1.0694761         1000    1.7467669 
  404000   0.96265884         1000     1.749461 
  406000   0.86868543         1000    1.7382736 
  408000    1.2030754         1000    1.6910211 
  410000    0.9960995         1000    1.7156077 
  412000   0.99007521         1000    1.7291281 
  414000   0.86080052         1000    1.7963851 
  416000   0.93702745         1000    1.7610035 
  418000    1.0185895         1000    1.7347639 
  420000    1.0496895         1000     1.714242 
  422000    1.0792927         1000    1.7812274 
  424000   0.92742761         1000    1.7459812 
  426000   0.99970272         1000    1.8001104 
  428000    1.0798382         1000    1.7430189 
  430000   0.89186979         1000      1.73545 
  432000    1.1651061         1000    1.6983973 
  434000    1.1466579         1000    1.7394679 
  436000   0.96018833         1000    1.7399748 
  438000    1.0983532         1000    1.7286479 
  440000    1.2174043         1000    1.6793757 
  442000   0.83491988         1000    1.7736908 
  444000   0.86453935         1000     1.757152 
  446000   0.99853867         1000    1.7386841 
  448000   0.86013751         1000    1.7263684 
  450000    1.0034354         1000    1.7329604 
  452000    1.1529135         1000    1.6786074 
  454000   0.91581794         1000    1.7520103 
  456000    1.0046841         1000    1.7027856 
  458000    1.2195189         1000     1.689472 
  460000    1.0306207         1000    1.7004766 
  462000     0.821583         1000    1.7841795 
  464000   0.97102844         1000     1.738877 
  466000    1.0858752         1000    1.7100634 
  468000    1.0818714         1000    1.7312297 
  470000    0.9818407         1000    1.7289187 
  472000    1.0374296         1000    1.7262474 
  474000    1.0446504         1000     1.725931 
  476000    1.2249991         1000    1.6957418 
  478000   0.91001994         1000    1.7635075 
  480000    1.0740453         1000    1.7086723 
  482000     1.081313         1000    1.7233186 
  484000    0.9010404         1000    1.7686464 
  486000    1.0332427         1000    1.7055264 
  488000   0.92294096         1000    1.7440653 
  490000    1.1251469         1000    1.7594935 
  492000     1.250176         1000    1.6692599 
  494000   0.91609647         1000    1.7508739 
  496000    1.0532428         1000    1.7350415 
  498000    1.2859979         1000     1.721399 
  500000   0.88375161         1000    1.7439889 
Loop time of 120.328 on 1 procs for 500000 steps with 500 atoms

Performance: 1795099.304 tau/day, 4155.322 timesteps/s
90.5% CPU use with 1 MPI tasks x no OpenMP threads

MPI task timing breakdown:
Section |  min time  |  avg time  |  max time  |%varavg| %total
---------------------------------------------------------------
Pair    | 93.6       | 93.6       | 93.6       |   0.0 | 77.79
Neigh   | 16.055     | 16.055     | 16.055     |   0.0 | 13.34
Comm    | 4.919      | 4.919      | 4.919      |   0.0 |  4.09
Output  | 0.028587   | 0.028587   | 0.028587   |   0.0 |  0.02
Modify  | 4.7744     | 4.7744     | 4.7744     |   0.0 |  3.97
Other   |            | 0.95       |            |       |  0.79

Nlocal:    500 ave 500 max 500 min
Histogram: 1 0 0 0 0 0 0 0 0 0
Nghost:    1431 ave 1431 max 1431 min
Histogram: 1 0 0 0 0 0 0 0 0 0
Neighs:    11307 ave 11307 max 11307 min
Histogram: 1 0 0 0 0 0 0 0 0 0

Total # of neighbors = 11307
Ave neighs/atom = 22.614
Neighbor list builds = 25000
Dangerous builds not checked
Total wall time: 0:02:00
