LAMMPS (19 Oct 2016)
# equation of state for LJ

variable temp equal 1.8
variable rho  equal 0.91

units lj
atom_style atomic

lattice    fcc ${rho}
lattice    fcc 0.91
Lattice spacing in x,y,z = 1.6381 1.6381 1.6381
region box block 0 5 0 5 0 5
create_box 1 box
Created orthogonal box = (0 0 0) to (8.19048 8.19048 8.19048)
  1 by 1 by 1 MPI processor grid
create_atoms 1 box
Created 500 atoms
mass       1 1.0

pair_style lj/cut 2.5
pair_coeff 1 1 1.0 1.0 2.5

velocity   all create ${temp} 87287
velocity   all create 1.8 87287

neighbor   0.3 bin
neigh_modify every 20 delay 0 check no

fix        1 all nvt temp ${temp} ${temp} 100
fix        1 all nvt temp 1.8 ${temp} 100
fix        1 all nvt temp 1.8 1.8 100
dump       1 all custom 70000 dump_t${temp}_r${rho}.lammpstrj id type x y z
dump       1 all custom 70000 dump_t1.8_r${rho}.lammpstrj id type x y z
dump       1 all custom 70000 dump_t1.8_r0.91.lammpstrj id type x y z
thermo     2000
thermo_style  custom step press vol temp
thermo_modify flush yes

run 500000
Neighbor list info ...
  1 neighbor list requests
  update every 20 steps, delay 0 steps, check no
  max neighbors/atom: 2000, page size: 100000
  master list distance cutoff = 2.8
  ghost atom cutoff = 2.8
  binsize = 1.4 -> bins = 6 6 6
Memory usage per processor = 3.32155 Mbytes
Step Press Volume Temp 
       0   -4.0650849    549.45055          1.8 
    2000    2.2040329    549.45055   0.93470218 
    4000    1.9707989    549.45055   0.97417133 
    6000    2.2702987    549.45055   0.95990429 
    8000    2.4054811    549.45055   0.96618817 
   10000    2.2514708    549.45055    1.0121375 
   12000    2.4013044    549.45055    1.0128231 
   14000    2.6381517    549.45055    1.0145937 
   16000    2.8994623    549.45055     0.994255 
   18000    2.9736143    549.45055    1.0109106 
   20000    2.8330503    549.45055    1.0411873 
   22000    3.3320513    549.45055    1.0258386 
   24000    3.8956049    549.45055   0.97376835 
   26000    4.3960903    549.45055   0.94381387 
   28000    4.2858069    549.45055   0.97511852 
   30000    4.6274141    549.45055    0.9611596 
   32000    4.1511334    549.45055    1.0708289 
   34000     4.608779    549.45055    1.0275543 
   36000     4.615178    549.45055    1.0738376 
   38000    5.0425947    549.45055    1.0374001 
   40000    4.7823893    549.45055    1.1227235 
   42000    5.4797369    549.45055    1.0430492 
   44000    5.0193406    549.45055    1.1589969 
   46000    5.4158337    549.45055    1.1347333 
   48000    5.5742774    549.45055    1.1608565 
   50000    5.7443064    549.45055    1.1651624 
   52000    5.8568746    549.45055    1.1916498 
   54000    5.5223065    549.45055    1.2688453 
   56000    5.9393314    549.45055     1.265528 
   58000    6.2400556    549.45055    1.2692822 
   60000    6.2108752    549.45055    1.3047171 
   62000    6.1750431    549.45055    1.3466044 
   64000    6.5446605    549.45055    1.3529617 
   66000    6.5638154    549.45055    1.3888516 
   68000    6.5909652    549.45055    1.4117331 
   70000    6.8409161    549.45055    1.4173732 
   72000    7.3628527    549.45055    1.3833774 
   74000    7.2599647    549.45055    1.4375387 
   76000    7.3871813    549.45055    1.4671844 
   78000    7.8672083    549.45055    1.4351139 
   80000    7.2786774    549.45055    1.5683094 
   82000    7.9085577    549.45055    1.5149593 
   84000    7.7648495    549.45055    1.5717706 
   86000    7.9208426    549.45055    1.5745819 
   88000    7.8230692    549.45055    1.6396117 
   90000    8.1418982    549.45055    1.6187481 
   92000    8.3515152    549.45055    1.6344219 
   94000    8.6144218    549.45055    1.6375719 
   96000    8.4208669    549.45055    1.6770524 
   98000    8.9185406    549.45055    1.6520909 
  100000     8.262921    549.45055    1.7891828 
  102000    8.9175696    549.45055    1.7174633 
  104000    8.8781958    549.45055    1.7525326 
  106000    9.1565359    549.45055     1.728948 
  108000    9.0459017    549.45055    1.7835217 
  110000     9.026433    549.45055    1.8100278 
  112000    8.9713377    549.45055    1.8604739 
  114000    9.4478919    549.45055    1.7977472 
  116000    9.6937595    549.45055    1.7768872 
  118000    9.7148386    549.45055    1.7721116 
  120000     9.837205    549.45055    1.8033209 
  122000     9.796974    549.45055    1.8306144 
  124000    9.6118661    549.45055    1.8470205 
  126000     9.626739    549.45055    1.8692561 
  128000    9.7665087    549.45055     1.864857 
  130000     9.777084    549.45055     1.873482 
  132000    9.6993174    549.45055    1.9001526 
  134000    9.5014686    549.45055    1.9145022 
  136000    9.9718528    549.45055    1.8512012 
  138000    9.8265071    549.45055    1.8709832 
  140000     10.27752    549.45055    1.8036247 
  142000    9.4500025    549.45055    1.9389707 
  144000    9.0209097    549.45055    1.9960476 
  146000    9.7537447    549.45055    1.8688941 
  148000    10.095068    549.45055    1.8073011 
  150000    9.9030148    549.45055    1.8326222 
  152000    9.6952013    549.45055    1.8523551 
  154000    9.8119789    549.45055    1.8300382 
  156000    9.5621306    549.45055    1.8446426 
  158000    9.0318398    549.45055    1.9122208 
  160000    9.3419714    549.45055    1.8616586 
  162000    9.7938505    549.45055    1.7731367 
  164000    9.2771273    549.45055    1.8391708 
  166000    9.6622543    549.45055    1.7706897 
  168000     9.280146    549.45055    1.8138072 
  170000    9.2666245    549.45055    1.7894779 
  172000    8.8359467    549.45055    1.8464449 
  174000    9.6863713    549.45055    1.7078126 
  176000    9.3090702    549.45055    1.7529208 
  178000    9.0988655    549.45055     1.779177 
  180000     9.184757    549.45055    1.7500201 
  182000    9.0427038    549.45055    1.7594975 
  184000       9.0804    549.45055    1.7476281 
  186000    8.9958053    549.45055    1.7534546 
  188000    8.9814462    549.45055    1.7457606 
  190000    9.3141507    549.45055    1.6978133 
  192000    8.6635341    549.45055    1.7915505 
  194000    8.8159801    549.45055    1.7760145 
  196000    8.8054838    549.45055    1.7661895 
  198000    8.8520066    549.45055    1.7648101 
  200000    8.7486201    549.45055    1.7799789 
  202000    9.0410151    549.45055    1.7457389 
  204000    8.9272612    549.45055    1.7661421 
  206000    9.1718607    549.45055    1.7175513 
  208000    9.1047964    549.45055    1.7284587 
  210000    8.4879504    549.45055    1.8569232 
  212000    9.1377227    549.45055    1.7643254 
  214000     9.194623    549.45055      1.75854 
  216000       8.8943    549.45055     1.803625 
  218000     8.735381    549.45055    1.8518213 
  220000    9.1524037    549.45055    1.8070017 
  222000    9.1147693    549.45055    1.8109474 
  224000    9.1813273    549.45055    1.8280585 
  226000    9.1772665    549.45055     1.814261 
  228000    8.9689677    549.45055    1.8736683 
  230000    9.5572694    549.45055    1.7909803 
  232000    9.6299985    549.45055     1.794035 
  234000    9.2478527    549.45055    1.8569414 
  236000    9.6897189    549.45055    1.7750505 
  238000    9.7621871    549.45055     1.781784 
  240000    9.1561237    549.45055     1.872681 
  242000    9.6129723    549.45055    1.8229564 
  244000    9.5633942    549.45055    1.8310671 
  246000    9.4966418    549.45055    1.8250178 
  248000    9.3813368    549.45055    1.8732652 
  250000    9.4281165    549.45055    1.8738327 
  252000    9.5388217    549.45055    1.8629336 
  254000    9.4403705    549.45055    1.8495204 
  256000    10.001333    549.45055    1.7707036 
  258000    10.103314    549.45055    1.7712011 
  260000    9.4419381    549.45055    1.8575311 
  262000    9.4419489    549.45055    1.8593374 
  264000    9.7556735    549.45055    1.7842863 
  266000    9.6247848    549.45055    1.8065668 
  268000    9.3364867    549.45055    1.8552395 
  270000     9.128057    549.45055    1.8847143 
  272000    9.8871465    549.45055    1.7632046 
  274000    9.5718995    549.45055    1.8112581 
  276000    9.3284584    549.45055    1.8343712 
  278000    8.9455432    549.45055    1.8658951 
  280000     9.446875    549.45055    1.8001794 
  282000     9.043064    549.45055    1.8562049 
  284000    8.8600624    549.45055    1.8664223 
  286000    9.9804252    549.45055    1.6898959 
  288000    9.5016754    549.45055    1.7595174 
  290000    9.0877432    549.45055    1.8276578 
  292000    9.3143846    549.45055    1.7898434 
  294000    9.4012697    549.45055    1.7707467 
  296000    9.0283404    549.45055    1.8234853 
  298000    9.5355382    549.45055    1.7493534 
  300000    9.0189773    549.45055    1.8130565 
  302000    9.2411006    549.45055    1.7884207 
  304000    9.4936948    549.45055    1.7399044 
  306000    9.0563839    549.45055    1.8244123 
  308000    9.0910722    549.45055    1.8141918 
  310000    9.0514911    549.45055    1.8111179 
  312000    9.6038689    549.45055    1.7142293 
  314000    9.0288513    549.45055    1.8074138 
  316000    9.0055237    549.45055    1.8298386 
  318000    9.5243625    549.45055    1.7428436 
  320000    9.2885577    549.45055    1.7820127 
  322000    9.2925248    549.45055    1.7795392 
  324000    8.8606387    549.45055    1.8329743 
  326000    9.7373532    549.45055     1.716578 
  328000    9.1253761    549.45055    1.8170584 
  330000    9.3874894    549.45055     1.776626 
  332000    9.3112066    549.45055     1.789675 
  334000     9.579814    549.45055    1.7652793 
  336000    9.4476775    549.45055    1.7834405 
  338000    9.4535813    549.45055    1.7733797 
  340000    9.4231803    549.45055    1.8056045 
  342000    9.5304034    549.45055    1.7675256 
  344000    9.6211519    549.45055    1.7717099 
  346000    9.3027037    549.45055    1.8121075 
  348000    9.6671258    549.45055    1.7595654 
  350000    9.7120388    549.45055    1.7542861 
  352000    9.1361086    549.45055    1.8729448 
  354000    9.4835088    549.45055    1.7912284 
  356000    9.8368717    549.45055    1.7350817 
  358000    9.2164419    549.45055     1.847957 
  360000    9.4628358    549.45055    1.8083125 
  362000     9.338949    549.45055    1.8146936 
  364000    8.8315239    549.45055    1.9071492 
  366000    9.3829674    549.45055    1.8331637 
  368000    9.3759523    549.45055    1.8088371 
  370000    9.7559423    549.45055    1.7735573 
  372000    9.4527123    549.45055     1.820098 
  374000    9.5341662    549.45055    1.8138274 
  376000    9.2240985    549.45055    1.8558791 
  378000    9.3034517    549.45055    1.8116467 
  380000    9.4038863    549.45055    1.8117295 
  382000    9.9015459    549.45055    1.7618888 
  384000    9.3947146    549.45055    1.7975337 
  386000    9.2958685    549.45055    1.8384747 
  388000    9.5951183    549.45055    1.7702738 
  390000    9.4116054    549.45055    1.8022657 
  392000    9.3994028    549.45055    1.8001145 
  394000    9.4289658    549.45055     1.787242 
  396000    9.5274529    549.45055    1.7809116 
  398000    9.4012219    549.45055    1.7932462 
  400000    9.3028744    549.45055    1.8115723 
  402000    9.9087738    549.45055    1.7250095 
  404000     9.533514    549.45055    1.7717969 
  406000    9.3662645    549.45055    1.7768814 
  408000    9.5506537    549.45055    1.7593599 
  410000    9.3695603    549.45055     1.783231 
  412000    9.5321373    549.45055    1.7449969 
  414000    9.0573319    549.45055    1.8379505 
  416000    9.3628916    549.45055    1.7954832 
  418000     9.205379    549.45055    1.8135145 
  420000    9.0301497    549.45055    1.8266533 
  422000    9.8692936    549.45055     1.717736 
  424000    9.4508033    549.45055    1.7717013 
  426000     9.227525    549.45055    1.8043027 
  428000    9.4054252    549.45055    1.7746805 
  430000    9.4083524    549.45055    1.7754777 
  432000    9.2410651    549.45055    1.8117877 
  434000    9.5340275    549.45055    1.7472539 
  436000    9.3646936    549.45055    1.7949736 
  438000    9.2919379    549.45055    1.7939404 
  440000    9.0320806    549.45055    1.8516884 
  442000    9.3065848    549.45055    1.7942167 
  444000    9.1970438    549.45055    1.8096193 
  446000    9.3108257    549.45055    1.7978824 
  448000    9.0632472    549.45055    1.8284713 
  450000    9.4745114    549.45055    1.7739662 
  452000    8.9588976    549.45055    1.8555162 
  454000    9.4156133    549.45055    1.7978598 
  456000    9.2248388    549.45055    1.8289626 
  458000    9.7206239    549.45055    1.7545038 
  460000    9.4174783    549.45055    1.8049667 
  462000    9.5361068    549.45055    1.7805942 
  464000     9.415853    549.45055    1.7932427 
  466000    9.5848058    549.45055     1.769218 
  468000    9.2098418    549.45055    1.8500539 
  470000     9.663105    549.45055    1.7532189 
  472000    9.4008332    549.45055    1.8082755 
  474000    9.6487224    549.45055    1.7594172 
  476000    9.2211731    549.45055    1.8246213 
  478000    9.3174382    549.45055    1.8059752 
  480000     9.181797    549.45055    1.8296976 
  482000    9.2591978    549.45055     1.816709 
  484000    9.3233473    549.45055    1.8024167 
  486000    9.2427894    549.45055    1.8335867 
  488000     9.578304    549.45055     1.741207 
  490000    9.3692495    549.45055    1.8185101 
  492000     9.748397    549.45055    1.7442059 
  494000    9.5853703    549.45055    1.7634888 
  496000    9.7425468    549.45055    1.7458649 
  498000    9.7456726    549.45055    1.7265327 
  500000    9.4570201    549.45055    1.7759908 
Loop time of 178.728 on 1 procs for 500000 steps with 500 atoms

Performance: 1208542.124 tau/day, 2797.551 timesteps/s
95.3% CPU use with 1 MPI tasks x no OpenMP threads

MPI task timing breakdown:
Section |  min time  |  avg time  |  max time  |%varavg| %total
---------------------------------------------------------------
Pair    | 144.95     | 144.95     | 144.95     |   0.0 | 81.10
Neigh   | 22.77      | 22.77      | 22.77      |   nan | 12.74
Comm    | 5.7209     | 5.7209     | 5.7209     |   0.0 |  3.20
Output  | 0.021586   | 0.021586   | 0.021586   |   0.0 |  0.01
Modify  | 4.22       | 4.22       | 4.22       |   0.0 |  2.36
Other   |            | 1.047      |            |       |  0.59

Nlocal:    500 ave 500 max 500 min
Histogram: 1 0 0 0 0 0 0 0 0 0
Nghost:    1859 ave 1859 max 1859 min
Histogram: 1 0 0 0 0 0 0 0 0 0
Neighs:    20374 ave 20374 max 20374 min
Histogram: 1 0 0 0 0 0 0 0 0 0

Total # of neighbors = 20374
Ave neighs/atom = 40.748
Neighbor list builds = 25000
Dangerous builds not checked
Total wall time: 0:02:58
