LAMMPS (19 Oct 2016)
# equation of state for LJ

variable temp equal 1.8
variable rho  equal 0.8

units lj
atom_style atomic

lattice    fcc ${rho}
lattice    fcc 0.8
Lattice spacing in x,y,z = 1.70998 1.70998 1.70998
region box block 0 5 0 5 0 5
create_box 1 box
Created orthogonal box = (0 0 0) to (8.54988 8.54988 8.54988)
  1 by 1 by 1 MPI processor grid
create_atoms 1 box
Created 500 atoms
mass       1 1.0

pair_style lj/cut 2.5
pair_coeff 1 1 1.0 1.0 2.5

velocity   all create ${temp} 87287
velocity   all create 1.8 87287

neighbor   0.3 bin
neigh_modify every 20 delay 0 check no

fix        1 all nvt temp ${temp} ${temp} 100
fix        1 all nvt temp 1.8 ${temp} 100
fix        1 all nvt temp 1.8 1.8 100
dump       1 all custom 70000 dump_t${temp}_r${rho}.lammpstrj id type x y z
dump       1 all custom 70000 dump_t1.8_r${rho}.lammpstrj id type x y z
dump       1 all custom 70000 dump_t1.8_r0.8.lammpstrj id type x y z
thermo     2000
thermo_style  custom step press vol temp
thermo_modify flush yes

run 500000
Neighbor list info ...
  1 neighbor list requests
  update every 20 steps, delay 0 steps, check no
  max neighbors/atom: 2000, page size: 100000
  master list distance cutoff = 2.8
  ghost atom cutoff = 2.8
  binsize = 1.4 -> bins = 7 7 7
Memory usage per processor = 3.32306 Mbytes
Step Press Volume Temp 
       0   -4.7718466          625          1.8 
    2000    1.5917172          625   0.98143977 
    4000    1.4010446          625     1.024939 
    6000     1.639795          625    1.0158031 
    8000    1.8167854          625    1.0084705 
   10000    1.9619724          625    1.0214677 
   12000    2.1943627          625    1.0162645 
   14000    1.9726306          625     1.066462 
   16000    1.9016304          625    1.1033413 
   18000    2.3755059          625    1.0407329 
   20000    2.2829828          625    1.0743712 
   22000    2.3769764          625     1.136854 
   24000    2.4003336          625     1.145372 
   26000    2.4922101          625    1.1450113 
   28000     2.176784          625     1.228046 
   30000    2.7748964          625    1.1683948 
   32000    2.6767646          625    1.2201714 
   34000    3.1747962          625    1.1878705 
   36000    2.6984436          625    1.2772583 
   38000    2.9329067          625    1.2917803 
   40000     3.363001          625    1.2679864 
   42000    3.1135669          625    1.3342452 
   44000    3.2014691          625    1.3477462 
   46000     3.179543          625    1.3880127 
   48000    3.0650821          625     1.423963 
   50000    3.4591832          625    1.4331355 
   52000     3.357925          625    1.4632556 
   54000    3.6039652          625    1.4608808 
   56000    3.8860136          625    1.4485511 
   58000    3.4156413          625    1.5310817 
   60000     4.066517          625    1.4903232 
   62000    3.7889723          625    1.5470769 
   64000     4.379708          625    1.5044295 
   66000    4.3799601          625    1.5376587 
   68000    4.2431585          625    1.5908921 
   70000    4.1456258          625    1.6415367 
   72000    4.4590444          625    1.6058955 
   74000    4.8816191          625    1.5853822 
   76000    4.5220067          625    1.6643803 
   78000    4.9287805          625    1.6268183 
   80000    5.0568785          625     1.627052 
   82000    5.0895722          625    1.6494231 
   84000    4.6340819          625    1.7518987 
   86000    4.8154692          625    1.7474617 
   88000    5.0947583          625    1.6981752 
   90000    4.9626431          625    1.7807734 
   92000    4.9647889          625    1.7724102 
   94000    4.8284729          625    1.8242585 
   96000    5.0435804          625    1.8312283 
   98000    4.9134552          625     1.812466 
  100000    4.8474473          625    1.8529497 
  102000    5.4603959          625    1.7938489 
  104000     5.356661          625    1.8145604 
  106000    5.5508825          625    1.7871724 
  108000    5.4003638          625    1.8255073 
  110000    4.9291011          625    1.8907431 
  112000    5.0758415          625    1.8829053 
  114000    5.5092386          625    1.8170938 
  116000    5.7770268          625    1.7476204 
  118000    5.1548102          625    1.8773425 
  120000    5.5118919          625    1.8147212 
  122000    5.3836791          625    1.8251932 
  124000    5.0394962          625    1.8900344 
  126000    5.5223813          625    1.7986652 
  128000    5.4236142          625    1.8286823 
  130000    5.2791286          625    1.8436579 
  132000    5.2268832          625    1.8489466 
  134000    5.6219905          625    1.7726441 
  136000    4.6936865          625     1.914055 
  138000    5.4748969          625    1.7849547 
  140000    5.1209959          625     1.830294 
  142000    5.3837601          625    1.7758416 
  144000    5.1967182          625    1.8252417 
  146000    4.8224624          625    1.8700868 
  148000    5.3282852          625    1.7776334 
  150000    5.0651303          625    1.8219036 
  152000    5.1811575          625    1.7719597 
  154000    5.2431878          625    1.7586927 
  156000    5.2928649          625    1.7518931 
  158000    5.1271284          625    1.7825658 
  160000    4.9717261          625     1.787941 
  162000    5.1932944          625    1.7387706 
  164000    5.2920121          625    1.7220711 
  166000    5.1612527          625    1.7353736 
  168000    4.9115257          625    1.7844501 
  170000    4.5093153          625    1.8464146 
  172000    4.8183557          625    1.8003783 
  174000    4.5339666          625    1.8482817 
  176000    5.1164939          625    1.7541846 
  178000    4.9059103          625    1.7593179 
  180000    4.9947079          625    1.7832123 
  182000    5.0691049          625    1.7731442 
  184000    5.1794125          625    1.7477808 
  186000     5.117463          625    1.7567225 
  188000    5.1268632          625     1.777543 
  190000    5.1440617          625     1.760987 
  192000    4.5978441          625    1.8518418 
  194000    5.4828748          625    1.7579222 
  196000    5.0352763          625    1.7868234 
  198000     5.151861          625    1.7795188 
  200000    4.9385009          625     1.820658 
  202000     4.740051          625    1.8469666 
  204000    5.1841598          625    1.8019173 
  206000    5.0457508          625    1.8127857 
  208000    5.3092532          625    1.7910544 
  210000    5.2590246          625    1.8054161 
  212000    5.0255139          625    1.8271309 
  214000      4.90398          625    1.8524034 
  216000    5.2167053          625    1.7971181 
  218000    5.1434008          625    1.8336467 
  220000    5.1998019          625    1.7877228 
  222000    5.2981999          625    1.7905971 
  224000    5.5061783          625    1.7447163 
  226000    5.4131988          625    1.7715815 
  228000     5.303435          625    1.8041902 
  230000    5.0221373          625    1.8288732 
  232000     5.558134          625     1.755906 
  234000    5.0550294          625    1.8365481 
  236000    5.1363162          625    1.8176927 
  238000    5.0390555          625     1.831058 
  240000    4.9483143          625    1.8479704 
  242000    5.3051818          625    1.7703536 
  244000    5.1648311          625    1.7942619 
  246000    4.9584815          625    1.8405108 
  248000    5.0162402          625    1.8192831 
  250000    5.0179872          625    1.8544546 
  252000    5.4731236          625    1.7403719 
  254000    5.1849126          625    1.7789808 
  256000    5.2887513          625    1.7883624 
  258000    5.0248961          625    1.8194872 
  260000    5.0771102          625    1.8150785 
  262000    5.3982698          625    1.7551349 
  264000    5.4676108          625    1.7520708 
  266000    4.8638318          625    1.8294791 
  268000    5.0115876          625    1.8195779 
  270000    5.1226579          625    1.7778762 
  272000    5.0189204          625    1.8220847 
  274000    5.2852266          625    1.7616796 
  276000    5.0088223          625    1.7988792 
  278000    4.8107538          625    1.8430371 
  280000    5.6310165          625    1.7331748 
  282000    5.3317214          625    1.7564129 
  284000    4.8873074          625    1.8251335 
  286000    5.2675342          625    1.7777788 
  288000    5.1739334          625    1.7764485 
  290000    5.1308646          625     1.781368 
  292000    4.9814821          625    1.8079414 
  294000    5.0116464          625    1.8125712 
  296000    5.1916393          625    1.7882818 
  298000    5.0208584          625    1.8053294 
  300000    5.2340238          625    1.7675931 
  302000    5.2117289          625     1.781281 
  304000    5.2019232          625    1.7990115 
  306000    5.1380704          625    1.7832466 
  308000    5.1521737          625    1.7892749 
  310000    5.0627951          625    1.8079469 
  312000    5.2830064          625    1.7633792 
  314000    5.3481432          625    1.7376771 
  316000    5.0106246          625    1.8014465 
  318000    4.9735666          625    1.8218241 
  320000    4.9592007          625    1.8240492 
  322000    4.6889567          625    1.8441139 
  324000    5.3532904          625    1.7676846 
  326000    4.7415352          625    1.8637196 
  328000    5.2918158          625    1.7654187 
  330000    5.2783744          625    1.7766625 
  332000    5.1440455          625    1.7844122 
  334000    5.3995829          625    1.7700081 
  336000    5.3254941          625     1.767974 
  338000    5.1160888          625    1.7880833 
  340000    5.1792629          625    1.7859817 
  342000      5.46577          625    1.7247112 
  344000    5.0073601          625    1.8195875 
  346000    5.1814794          625    1.7814211 
  348000     5.288728          625    1.7476766 
  350000    4.9113883          625    1.8219056 
  352000    5.1945976          625    1.7842442 
  354000    5.3145811          625    1.7544741 
  356000    5.2205999          625    1.7707006 
  358000    4.4110751          625    1.9109755 
  360000    5.1362928          625    1.7938747 
  362000    5.3585859          625    1.7532523 
  364000    5.1542626          625    1.7927268 
  366000    5.1670328          625    1.7657933 
  368000    4.9366304          625    1.8138796 
  370000    5.5517705          625    1.7294584 
  372000    4.8814444          625     1.815405 
  374000    5.0192996          625    1.8024901 
  376000    5.2138988          625    1.7597219 
  378000    4.7888245          625    1.8378255 
  380000    5.6186944          625    1.6973206 
  382000    5.3248528          625    1.7517559 
  384000    4.9053776          625    1.8029115 
  386000    5.0342497          625    1.7858092 
  388000    4.9696961          625    1.8212863 
  390000    5.2583921          625    1.7396239 
  392000    5.1097941          625    1.7658209 
  394000    5.2632275          625    1.7702966 
  396000    5.4130835          625    1.7436061 
  398000    5.2331403          625     1.784155 
  400000    4.6377014          625    1.8460099 
  402000    5.2808546          625    1.7497607 
  404000    4.9747297          625    1.8023485 
  406000     4.637526          625    1.8530404 
  408000    5.0334965          625    1.7834031 
  410000    4.9096809          625    1.8172452 
  412000    5.1384816          625    1.7781014 
  414000    4.9730722          625    1.7988864 
  416000    5.2926649          625    1.7622401 
  418000    5.4189615          625    1.7337364 
  420000    5.0064158          625    1.7842613 
  422000    5.1183686          625    1.7534967 
  424000    5.1310544          625    1.7384234 
  426000    4.9791498          625     1.788712 
  428000    5.0293949          625    1.7438276 
  430000    5.0384522          625     1.756147 
  432000    5.2760495          625    1.7226379 
  434000    4.5797949          625    1.8354503 
  436000    5.2819005          625    1.7118417 
  438000    4.7882992          625    1.8006926 
  440000    5.0185094          625    1.7624423 
  442000    5.1352009          625    1.7374452 
  444000    5.0954168          625    1.7555433 
  446000     4.757866          625    1.7964517 
  448000    4.8766138          625    1.7613315 
  450000    4.6292524          625    1.7987304 
  452000    4.9345389          625    1.7657677 
  454000    4.8404164          625    1.7542787 
  456000    4.8597797          625    1.7751417 
  458000    4.9187382          625    1.7530431 
  460000    4.6910513          625    1.7867677 
  462000    4.8424526          625    1.7638986 
  464000     4.969666          625     1.738103 
  466000    5.1300135          625    1.7219849 
  468000    4.8280207          625    1.7621247 
  470000    4.6086487          625    1.8129527 
  472000    4.9661991          625    1.7187131 
  474000    5.1672592          625    1.6937504 
  476000    5.0330998          625    1.7207549 
  478000    5.1869146          625    1.6741593 
  480000    5.1331955          625     1.689397 
  482000    4.7832086          625    1.7505566 
  484000    5.2984084          625    1.6819943 
  486000    4.7030412          625    1.7669366 
  488000    4.9365899          625    1.7266276 
  490000    5.0433554          625    1.7038661 
  492000    5.0223519          625    1.6988657 
  494000    4.5786871          625     1.774401 
  496000    4.8643366          625    1.7057369 
  498000     5.117594          625    1.6935834 
  500000    5.3129014          625    1.6649962 
Loop time of 170.435 on 1 procs for 500000 steps with 500 atoms

Performance: 1267347.129 tau/day, 2933.674 timesteps/s
91.5% CPU use with 1 MPI tasks x no OpenMP threads

MPI task timing breakdown:
Section |  min time  |  avg time  |  max time  |%varavg| %total
---------------------------------------------------------------
Pair    | 138.94     | 138.94     | 138.94     |   0.0 | 81.52
Neigh   | 19.716     | 19.716     | 19.716     |   0.0 | 11.57
Comm    | 5.8712     | 5.8712     | 5.8712     |   0.0 |  3.44
Output  | 0.0386     | 0.0386     | 0.0386     |   0.0 |  0.02
Modify  | 4.7033     | 4.7033     | 4.7033     |   0.0 |  2.76
Other   |            | 1.165      |            |       |  0.68

Nlocal:    500 ave 500 max 500 min
Histogram: 1 0 0 0 0 0 0 0 0 0
Nghost:    1778 ave 1778 max 1778 min
Histogram: 1 0 0 0 0 0 0 0 0 0
Neighs:    17952 ave 17952 max 17952 min
Histogram: 1 0 0 0 0 0 0 0 0 0

Total # of neighbors = 17952
Ave neighs/atom = 35.904
Neighbor list builds = 25000
Dangerous builds not checked
Total wall time: 0:02:50
