LAMMPS (19 Oct 2016)
# equation of state for LJ

variable temp equal 1.8
variable rho  equal 0.82

units lj
atom_style atomic

lattice    fcc ${rho}
lattice    fcc 0.82
Lattice spacing in x,y,z = 1.69596 1.69596 1.69596
region box block 0 5 0 5 0 5
create_box 1 box
Created orthogonal box = (0 0 0) to (8.4798 8.4798 8.4798)
  1 by 1 by 1 MPI processor grid
create_atoms 1 box
Created 500 atoms
mass       1 1.0

pair_style lj/cut 2.5
pair_coeff 1 1 1.0 1.0 2.5

velocity   all create ${temp} 87287
velocity   all create 1.8 87287

neighbor   0.3 bin
neigh_modify every 20 delay 0 check no

fix        1 all nvt temp ${temp} ${temp} 100
fix        1 all nvt temp 1.8 ${temp} 100
fix        1 all nvt temp 1.8 1.8 100
dump       1 all custom 70000 dump_t${temp}_r${rho}.lammpstrj id type x y z
dump       1 all custom 70000 dump_t1.8_r${rho}.lammpstrj id type x y z
dump       1 all custom 70000 dump_t1.8_r0.82.lammpstrj id type x y z
thermo     2000
thermo_style  custom step press vol temp
thermo_modify flush yes

run 500000
Neighbor list info ...
  1 neighbor list requests
  update every 20 steps, delay 0 steps, check no
  max neighbors/atom: 2000, page size: 100000
  master list distance cutoff = 2.8
  ghost atom cutoff = 2.8
  binsize = 1.4 -> bins = 7 7 7
Memory usage per processor = 3.32306 Mbytes
Step Press Volume Temp 
       0   -4.7799557     609.7561          1.8 
    2000    1.7044803     609.7561   0.95544726 
    4000    1.7898427     609.7561   0.94579219 
    6000    2.0394022     609.7561   0.94316732 
    8000    2.1514986     609.7561   0.96121614 
   10000     2.195757     609.7561   0.98044326 
   12000    1.9153724     609.7561    1.0288878 
   14000     2.313148     609.7561   0.99551796 
   16000    2.1043319     609.7561    1.0424546 
   18000    2.4748476     609.7561    1.0167364 
   20000    2.3771397     609.7561    1.0753482 
   22000    2.4071248     609.7561    1.0896205 
   24000    2.6796041     609.7561    1.0862263 
   26000    2.6887162     609.7561    1.1164821 
   28000    2.7975981     609.7561    1.1348463 
   30000    3.3069344     609.7561    1.0875979 
   32000    2.8418136     609.7561     1.177428 
   34000    3.0162797     609.7561    1.2016439 
   36000    3.2115043     609.7561     1.199805 
   38000    3.0878349     609.7561    1.2713716 
   40000    3.3814568     609.7561    1.2462491 
   42000    3.4886685     609.7561    1.2834652 
   44000    3.2839691     609.7561    1.3328699 
   46000    3.2575823     609.7561    1.3841871 
   48000    3.5324963     609.7561      1.36133 
   50000    4.0839587     609.7561    1.3379192 
   52000    4.1157405     609.7561    1.3652627 
   54000    4.0637694     609.7561    1.3845466 
   56000    4.2048817     609.7561    1.4074621 
   58000    4.2030578     609.7561    1.4440565 
   60000    4.3524413     609.7561    1.4925985 
   62000    4.6503137     609.7561     1.448637 
   64000    4.5451321     609.7561    1.5072372 
   66000      4.61305     609.7561    1.5237709 
   68000    4.6968943     609.7561    1.5524007 
   70000    5.0957872     609.7561     1.511985 
   72000    4.6406504     609.7561    1.6323301 
   74000    5.0199515     609.7561    1.5917413 
   76000    5.0730176     609.7561    1.6258818 
   78000    5.0615839     609.7561    1.6411895 
   80000    5.6942443     609.7561    1.5737828 
   82000    5.3608775     609.7561    1.6616495 
   84000     5.392923     609.7561    1.6808683 
   86000    5.4016527     609.7561    1.7229502 
   88000    5.4984962     609.7561    1.7149382 
   90000    5.3757066     609.7561    1.7578456 
   92000    5.4865619     609.7561    1.7752794 
   94000    5.8274639     609.7561    1.7332236 
   96000    6.2831983     609.7561    1.6811243 
   98000    5.8460507     609.7561    1.7519725 
  100000    5.6217664     609.7561    1.8087187 
  102000    5.7505499     609.7561    1.8154719 
  104000     5.853833     609.7561    1.8255765 
  106000    6.6553819     609.7561    1.7086641 
  108000    5.7972128     609.7561     1.871019 
  110000       5.4724     609.7561    1.9252684 
  112000    6.0353048     609.7561    1.8329852 
  114000    6.1951106     609.7561    1.8139681 
  116000    6.1839587     609.7561     1.820137 
  118000    6.2087509     609.7561    1.8235188 
  120000    5.7730862     609.7561    1.8761293 
  122000    5.9098248     609.7561     1.863535 
  124000    6.2394483     609.7561    1.8164909 
  126000    5.6752593     609.7561    1.8899074 
  128000     6.401674     609.7561    1.7751671 
  130000    5.7315155     609.7561    1.8940062 
  132000    6.1684502     609.7561    1.7995212 
  134000     5.860744     609.7561    1.8684671 
  136000    6.3118299     609.7561    1.8043362 
  138000    5.5907311     609.7561    1.8820437 
  140000    6.4394405     609.7561    1.7640454 
  142000     5.892791     609.7561    1.8082896 
  144000    5.7277696     609.7561    1.8277251 
  146000    6.5893247     609.7561    1.6834546 
  148000    5.9722316     609.7561    1.7546326 
  150000    5.7088292     609.7561     1.815689 
  152000    5.9550507     609.7561    1.7731513 
  154000    5.7305171     609.7561    1.7925538 
  156000    5.7436326     609.7561    1.7763945 
  158000    5.6003172     609.7561    1.7897114 
  160000    5.9493297     609.7561    1.7307358 
  162000     5.381878     609.7561    1.8341919 
  164000    5.5194028     609.7561    1.8048987 
  166000    5.7358371     609.7561     1.744612 
  168000    5.4456457     609.7561    1.7860593 
  170000    5.1739969     609.7561    1.8052063 
  172000     5.402141     609.7561    1.7916524 
  174000    5.4334315     609.7561    1.7888183 
  176000    5.2627912     609.7561     1.819397 
  178000    5.7809314     609.7561    1.7266092 
  180000    5.3744884     609.7561    1.7868614 
  182000    5.5424661     609.7561    1.7553098 
  184000    5.7210999     609.7561    1.7515724 
  186000    6.0233202     609.7561    1.7121022 
  188000    5.6550269     609.7561    1.7697229 
  190000    5.8106461     609.7561    1.7334521 
  192000    5.5895195     609.7561     1.780235 
  194000     5.667596     609.7561    1.7864063 
  196000    5.6467713     609.7561    1.7898626 
  198000    5.8112178     609.7561     1.773978 
  200000    5.6353526     609.7561    1.8031128 
  202000     6.066038     609.7561    1.7363777 
  204000    5.7743537     609.7561    1.7736105 
  206000    5.9010446     609.7561    1.7724924 
  208000     5.567929     609.7561    1.8182099 
  210000    5.6114663     609.7561    1.8399041 
  212000    5.5495608     609.7561    1.8411657 
  214000    6.1603443     609.7561    1.7673631 
  216000    5.8237728     609.7561     1.803521 
  218000     6.154558     609.7561    1.7375553 
  220000    5.7420495     609.7561    1.8367129 
  222000    5.8323233     609.7561    1.8057907 
  224000    5.9427946     609.7561    1.7860478 
  226000    5.6823616     609.7561    1.8249484 
  228000    5.6008019     609.7561     1.845829 
  230000    5.3528143     609.7561    1.9076991 
  232000    5.9471313     609.7561    1.7832261 
  234000    6.0383511     609.7561    1.7663084 
  236000    5.4534982     609.7561    1.8805995 
  238000    5.7515232     609.7561    1.8324587 
  240000    5.6909638     609.7561    1.8346684 
  242000    5.5290887     609.7561    1.8633659 
  244000    5.7937941     609.7561     1.818231 
  246000     5.829541     609.7561    1.8025523 
  248000    5.7221673     609.7561    1.8007059 
  250000    5.6538444     609.7561    1.8221639 
  252000    5.1826361     609.7561    1.8937482 
  254000    5.9230215     609.7561    1.7836934 
  256000    5.9461704     609.7561    1.7729281 
  258000    5.5124828     609.7561    1.8443303 
  260000    5.3172429     609.7561    1.8624281 
  262000    5.7216707     609.7561    1.7927758 
  264000    5.6793775     609.7561    1.7861032 
  266000     5.866437     609.7561    1.7673777 
  268000    6.0330517     609.7561    1.7349642 
  270000     5.803608     609.7561    1.7768449 
  272000    5.4698791     609.7561    1.8386486 
  274000    5.5252809     609.7561    1.8268417 
  276000     5.591524     609.7561    1.8004989 
  278000    5.7149505     609.7561    1.7786048 
  280000    5.6388255     609.7561    1.8095728 
  282000    5.6879118     609.7561    1.7952454 
  284000    5.3755355     609.7561    1.8464525 
  286000    5.6522779     609.7561     1.778855 
  288000    5.6291703     609.7561    1.8113587 
  290000    5.5191842     609.7561    1.8207703 
  292000    5.6868179     609.7561    1.7994371 
  294000    5.6065533     609.7561    1.7958113 
  296000    6.0005762     609.7561    1.7525284 
  298000    5.8351492     609.7561    1.7755604 
  300000    5.7282579     609.7561     1.792499 
  302000    5.4579359     609.7561    1.8510563 
  304000    5.3323288     609.7561    1.8483151 
  306000    5.2968724     609.7561    1.8670058 
  308000    5.0925884     609.7561       1.8943 
  310000    5.5150311     609.7561    1.8198135 
  312000    5.8036947     609.7561    1.7846816 
  314000    5.6854658     609.7561    1.8071907 
  316000    5.8640509     609.7561    1.7950859 
  318000    5.8645883     609.7561    1.8084606 
  320000     5.731205     609.7561    1.8055719 
  322000    5.7734634     609.7561    1.7895054 
  324000    6.0410791     609.7561    1.7773235 
  326000    6.1527796     609.7561    1.7389333 
  328000    5.7212429     609.7561    1.8357044 
  330000    5.7800367     609.7561    1.8090575 
  332000    5.5770501     609.7561    1.8100781 
  334000     5.972148     609.7561    1.7549261 
  336000    6.1881154     609.7561    1.7297837 
  338000    5.8890102     609.7561    1.7638695 
  340000    5.6640474     609.7561    1.8204063 
  342000    5.5638215     609.7561    1.8512571 
  344000    5.6613605     609.7561     1.803791 
  346000    5.9220735     609.7561    1.7781015 
  348000    5.7255417     609.7561    1.7947796 
  350000    5.9896158     609.7561    1.7655052 
  352000     5.419276     609.7561    1.8440371 
  354000    5.5326759     609.7561    1.8328806 
  356000    6.1124074     609.7561    1.7392926 
  358000    5.7559195     609.7561    1.7880859 
  360000    6.1523316     609.7561    1.7207404 
  362000    5.7464243     609.7561    1.7826689 
  364000    5.7957638     609.7561    1.7882758 
  366000    5.5112312     609.7561    1.8120424 
  368000    5.9736827     609.7561    1.7551058 
  370000    5.9242943     609.7561    1.7603746 
  372000    5.6741246     609.7561     1.810542 
  374000    5.8805853     609.7561    1.7620173 
  376000    5.6466696     609.7561    1.7982412 
  378000    5.6476756     609.7561    1.8188504 
  380000    5.7745275     609.7561    1.7754371 
  382000    5.9589473     609.7561    1.7542076 
  384000    5.9754129     609.7561    1.7600494 
  386000    5.8762451     609.7561    1.7837069 
  388000    5.5954772     609.7561    1.8179659 
  390000    6.0159949     609.7561    1.7478279 
  392000    5.8575503     609.7561    1.7709882 
  394000      5.85267     609.7561    1.7727378 
  396000    5.6550538     609.7561    1.7846872 
  398000    5.6624943     609.7561    1.8129684 
  400000    5.9797371     609.7561    1.7341998 
  402000    5.7226919     609.7561    1.8109956 
  404000    5.7287856     609.7561    1.7994242 
  406000    5.6859526     609.7561    1.7847058 
  408000    5.4345459     609.7561    1.8483364 
  410000    5.5250929     609.7561    1.8062796 
  412000    6.0084299     609.7561    1.7476637 
  414000    6.0558767     609.7561    1.7349125 
  416000    5.9279566     609.7561    1.7461407 
  418000    6.1276324     609.7561    1.7356473 
  420000    6.0409534     609.7561    1.7477656 
  422000    5.5297491     609.7561    1.8014924 
  424000    5.6621006     609.7561    1.8148781 
  426000    5.6684734     609.7561    1.7848057 
  428000    5.7043993     609.7561    1.7744902 
  430000    5.5360528     609.7561    1.7996154 
  432000    5.2443863     609.7561    1.8678539 
  434000     5.460005     609.7561    1.8187564 
  436000    6.1342059     609.7561    1.7133656 
  438000    5.7390284     609.7561    1.7640676 
  440000    5.4638118     609.7561    1.8127982 
  442000     5.895532     609.7561    1.7506604 
  444000    5.8738887     609.7561    1.7352149 
  446000    5.5091398     609.7561    1.8092862 
  448000    5.7566114     609.7561    1.7770838 
  450000      5.49814     609.7561    1.7947667 
  452000    5.6610152     609.7561    1.7716961 
  454000    5.3971552     609.7561    1.8059569 
  456000    5.9118585     609.7561    1.7287475 
  458000     5.540468     609.7561    1.8051768 
  460000    6.0507958     609.7561    1.7266222 
  462000    5.6988575     609.7561    1.7579552 
  464000    5.8883052     609.7561     1.733957 
  466000      5.49628     609.7561    1.8008879 
  468000     5.131588     609.7561    1.8468202 
  470000    5.9082848     609.7561    1.7189589 
  472000    5.9334218     609.7561    1.7093172 
  474000    5.5097188     609.7561    1.7822379 
  476000    5.9288695     609.7561    1.6959117 
  478000    5.7365559     609.7561    1.7220974 
  480000     5.925764     609.7561     1.716901 
  482000    5.2845755     609.7561    1.7812654 
  484000    5.7820327     609.7561    1.7296505 
  486000    5.6628958     609.7561    1.7387906 
  488000    5.9270711     609.7561    1.7038819 
  490000    5.4253294     609.7561      1.78926 
  492000    5.6214841     609.7561    1.7387565 
  494000    5.7257102     609.7561    1.7301762 
  496000    5.2432584     609.7561    1.7978151 
  498000    5.5232725     609.7561    1.7357956 
  500000    5.4359528     609.7561    1.7611213 
Loop time of 163.261 on 1 procs for 500000 steps with 500 atoms

Performance: 1323032.998 tau/day, 3062.576 timesteps/s
96.7% CPU use with 1 MPI tasks x no OpenMP threads

MPI task timing breakdown:
Section |  min time  |  avg time  |  max time  |%varavg| %total
---------------------------------------------------------------
Pair    | 134.27     | 134.27     | 134.27     |   0.0 | 82.24
Neigh   | 18.733     | 18.733     | 18.733     |   0.0 | 11.47
Comm    | 5.2375     | 5.2375     | 5.2375     |   0.0 |  3.21
Output  | 0.035013   | 0.035013   | 0.035013   |   0.0 |  0.02
Modify  | 4.0421     | 4.0421     | 4.0421     |   0.0 |  2.48
Other   |            | 0.9464     |            |       |  0.58

Nlocal:    500 ave 500 max 500 min
Histogram: 1 0 0 0 0 0 0 0 0 0
Nghost:    1776 ave 1776 max 1776 min
Histogram: 1 0 0 0 0 0 0 0 0 0
Neighs:    18359 ave 18359 max 18359 min
Histogram: 1 0 0 0 0 0 0 0 0 0

Total # of neighbors = 18359
Ave neighs/atom = 36.718
Neighbor list builds = 25000
Dangerous builds not checked
Total wall time: 0:02:43
