LAMMPS (19 Oct 2016)
# equation of state for LJ

variable temp equal 1.8
variable rho  equal 0.81

units lj
atom_style atomic

lattice    fcc ${rho}
lattice    fcc 0.81
Lattice spacing in x,y,z = 1.70291 1.70291 1.70291
region box block 0 5 0 5 0 5
create_box 1 box
Created orthogonal box = (0 0 0) to (8.51455 8.51455 8.51455)
  1 by 1 by 1 MPI processor grid
create_atoms 1 box
Created 500 atoms
mass       1 1.0

pair_style lj/cut 2.5
pair_coeff 1 1 1.0 1.0 2.5

velocity   all create ${temp} 87287
velocity   all create 1.8 87287

neighbor   0.3 bin
neigh_modify every 20 delay 0 check no

fix        1 all nvt temp ${temp} ${temp} 100
fix        1 all nvt temp 1.8 ${temp} 100
fix        1 all nvt temp 1.8 1.8 100
dump       1 all custom 70000 dump_t${temp}_r${rho}.lammpstrj id type x y z
dump       1 all custom 70000 dump_t1.8_r${rho}.lammpstrj id type x y z
dump       1 all custom 70000 dump_t1.8_r0.81.lammpstrj id type x y z
thermo     2000
thermo_style  custom step press vol temp
thermo_modify flush yes

run 500000
Neighbor list info ...
  1 neighbor list requests
  update every 20 steps, delay 0 steps, check no
  max neighbors/atom: 2000, page size: 100000
  master list distance cutoff = 2.8
  ghost atom cutoff = 2.8
  binsize = 1.4 -> bins = 7 7 7
Memory usage per processor = 3.32306 Mbytes
Step Press Volume Temp 
       0   -4.7820748    617.28395          1.8 
    2000    1.5223133    617.28395   0.98568351 
    4000     1.815905    617.28395   0.94724609 
    6000    1.8156343    617.28395   0.98336263 
    8000    1.7022531    617.28395    1.0144435 
   10000    2.1829415    617.28395   0.97362416 
   12000    1.9915551    617.28395    1.0297276 
   14000    1.8082297    617.28395    1.0701246 
   16000    2.4079595    617.28395    1.0257251 
   18000    2.2230354    617.28395    1.0692991 
   20000    2.2612587    617.28395    1.0887014 
   22000    2.5010527    617.28395    1.0905256 
   24000    2.7548762    617.28395    1.0843551 
   26000    2.7936533    617.28395    1.1043458 
   28000    2.7058138    617.28395    1.1567534 
   30000    2.8155473    617.28395    1.1703529 
   32000    2.6024039    617.28395    1.2333113 
   34000    3.0867325    617.28395    1.1754193 
   36000    3.1618582    617.28395    1.2229938 
   38000    2.8815228    617.28395    1.2755745 
   40000    3.1318798    617.28395    1.2791904 
   42000    3.2675043    617.28395    1.2956334 
   44000    3.5331924    617.28395    1.3100885 
   46000    3.4480664    617.28395    1.3470738 
   48000    3.5763051    617.28395    1.3630574 
   50000    3.4854974    617.28395    1.4113866 
   52000    3.4348995    617.28395    1.4614108 
   54000    3.9598639    617.28395    1.4206007 
   56000     3.713954    617.28395     1.467082 
   58000     4.024781    617.28395    1.4730605 
   60000    4.2038452    617.28395    1.4833989 
   62000    4.0935329    617.28395     1.538497 
   64000    4.6285582    617.28395    1.4961976 
   66000     4.379747    617.28395    1.5521724 
   68000    4.5874611    617.28395     1.545302 
   70000    4.5442772    617.28395    1.6084982 
   72000    4.6308366    617.28395    1.6074049 
   74000    4.5968381    617.28395     1.649126 
   76000    4.7298067    617.28395    1.6469745 
   78000    4.8856901    617.28395    1.6586378 
   80000    5.0137035    617.28395    1.6779269 
   82000    5.4685035    617.28395    1.5932435 
   84000    4.7775733    617.28395    1.7719534 
   86000    5.2679911    617.28395    1.6990282 
   88000    5.1119223    617.28395    1.7377856 
   90000    5.1555141    617.28395     1.791839 
   92000    5.6980782    617.28395    1.7004197 
   94000      5.35894    617.28395    1.7799568 
   96000    5.3880762    617.28395    1.7824055 
   98000    5.8061689    617.28395    1.7449186 
  100000    5.6136418    617.28395    1.7780411 
  102000    5.1732976    617.28395     1.868894 
  104000    5.1746016    617.28395    1.8864087 
  106000    5.5355122    617.28395    1.8373567 
  108000    5.5428441    617.28395    1.8639713 
  110000    5.4701716    617.28395    1.8688773 
  112000    5.6800793    617.28395     1.839789 
  114000    5.6513522    617.28395    1.8606674 
  116000    5.8725395    617.28395    1.8279348 
  118000    5.6201282    617.28395    1.8474587 
  120000    5.8431907    617.28395    1.8021418 
  122000     5.723211    617.28395    1.8299576 
  124000    5.3482538    617.28395    1.8997538 
  126000    5.5577943    617.28395    1.8658434 
  128000    5.9567202    617.28395    1.8074962 
  130000     5.315704    617.28395    1.8778091 
  132000     5.653003    617.28395    1.8318794 
  134000    5.6916535    617.28395    1.8397179 
  136000     5.338847    617.28395     1.859716 
  138000     5.114852    617.28395    1.9059736 
  140000    5.7253742    617.28395    1.7790528 
  142000    5.4708922    617.28395    1.8148588 
  144000    5.9550331    617.28395    1.7450904 
  146000    5.7191566    617.28395    1.7733559 
  148000    5.1055008    617.28395    1.8728929 
  150000    5.5013622    617.28395    1.8053504 
  152000    5.3039476    617.28395     1.798362 
  154000    4.8993402    617.28395    1.8601296 
  156000    5.4954815    617.28395    1.7879963 
  158000    4.9809573    617.28395    1.8223909 
  160000    5.1202428    617.28395     1.815845 
  162000    4.9480391    617.28395    1.8402967 
  164000    5.3139853    617.28395    1.7873848 
  166000    5.5719848    617.28395    1.7143892 
  168000    5.4030518    617.28395    1.7468519 
  170000    5.2869238    617.28395    1.7706627 
  172000    5.6535062    617.28395    1.7030539 
  174000    5.4201176    617.28395    1.7453089 
  176000    5.3015963    617.28395    1.7565813 
  178000    5.6207411    617.28395    1.7261766 
  180000    5.2792604    617.28395    1.7910141 
  182000     5.107113    617.28395    1.8078654 
  184000     5.381868    617.28395    1.7368789 
  186000    5.4457082    617.28395    1.7621438 
  188000    5.2187526    617.28395    1.8004183 
  190000    5.5008152    617.28395    1.7555871 
  192000    5.5595418    617.28395    1.7395194 
  194000    5.1540657    617.28395    1.8064355 
  196000    5.2251451    617.28395    1.8072775 
  198000    5.3526731    617.28395     1.805858 
  200000    5.1347994    617.28395    1.8276499 
  202000     5.562488    617.28395    1.7676975 
  204000    5.4274137    617.28395    1.8026715 
  206000    5.7572099    617.28395    1.7527514 
  208000    5.3605998    617.28395    1.7968182 
  210000     5.501303    617.28395    1.8081618 
  212000    5.4326805    617.28395     1.815064 
  214000    5.2814278    617.28395    1.8312255 
  216000    5.1912433    617.28395    1.8475119 
  218000     5.634434    617.28395    1.7715583 
  220000    5.2823695    617.28395    1.8362257 
  222000    5.3891792    617.28395    1.8276086 
  224000    5.4426996    617.28395    1.8203815 
  226000    5.2323355    617.28395    1.8371349 
  228000    5.4746534    617.28395    1.8041744 
  230000    5.3889418    617.28395    1.8242598 
  232000     5.717505    617.28395    1.7583811 
  234000      5.50017    617.28395    1.8001178 
  236000    5.8873333    617.28395     1.746602 
  238000    5.2311578    617.28395    1.8688838 
  240000    5.5824449    617.28395    1.7852195 
  242000    5.6749454    617.28395    1.7767505 
  244000    5.4550215    617.28395    1.7933665 
  246000    5.6804508    617.28395     1.779391 
  248000    5.1660867    617.28395    1.8691532 
  250000    5.5156182    617.28395    1.8028528 
  252000    5.5111062    617.28395    1.7985149 
  254000    5.4576394    617.28395    1.7858734 
  256000    5.5847338    617.28395    1.7684571 
  258000    5.6835986    617.28395    1.7580642 
  260000    5.6218317    617.28395    1.7690829 
  262000    5.6010558    617.28395    1.7771088 
  264000    5.4660511    617.28395    1.7900929 
  266000    5.4065587    617.28395     1.785746 
  268000    5.5103628    617.28395    1.7838067 
  270000    5.2686665    617.28395    1.8206188 
  272000    5.5331385    617.28395    1.7582687 
  274000    5.3570086    617.28395    1.8054762 
  276000    5.5786155    617.28395    1.7606911 
  278000    4.9749631    617.28395    1.8590978 
  280000    5.3482766    617.28395    1.7954671 
  282000    5.0792757    617.28395    1.8560004 
  284000    5.2306968    617.28395    1.8174026 
  286000    5.4966809    617.28395    1.7806652 
  288000    5.4803232    617.28395    1.7866264 
  290000    5.0894212    617.28395    1.8476077 
  292000    5.1118226    617.28395    1.8327037 
  294000     5.406844    617.28395    1.7913688 
  296000    5.5974909    617.28395    1.7812443 
  298000    5.4748639    617.28395    1.7763414 
  300000    5.1459764    617.28395    1.8329082 
  302000    5.2601609    617.28395     1.806148 
  304000    5.6987139    617.28395    1.7433568 
  306000    5.3329266    617.28395    1.8083546 
  308000    5.7081092    617.28395    1.7456451 
  310000    5.4361244    617.28395    1.7951221 
  312000    5.5531343    617.28395    1.7941046 
  314000    5.4131873    617.28395    1.7881227 
  316000    5.7783243    617.28395      1.72966 
  318000    5.8028778    617.28395    1.7311448 
  320000    5.0682915    617.28395    1.8501914 
  322000    5.0566066    617.28395    1.8476799 
  324000    5.1940015    617.28395    1.8283664 
  326000    5.7819369    617.28395    1.7277658 
  328000    5.5714561    617.28395    1.7664359 
  330000    5.2355838    617.28395    1.8002992 
  332000    5.6570508    617.28395    1.7674834 
  334000    5.3645555    617.28395    1.8035704 
  336000    5.2049754    617.28395    1.8416162 
  338000    5.5841097    617.28395    1.7819548 
  340000     5.999234    617.28395    1.6992653 
  342000    5.7738806    617.28395     1.751314 
  344000    5.2867066    617.28395    1.8256857 
  346000    5.8699881    617.28395    1.7330521 
  348000     5.276347    617.28395    1.8280388 
  350000    5.3969854    617.28395    1.8080119 
  352000    5.6842027    617.28395    1.7636439 
  354000    5.4563199    617.28395    1.7728823 
  356000    5.9006618    617.28395    1.7106159 
  358000    5.3075203    617.28395      1.83303 
  360000    5.5215808    617.28395    1.7709095 
  362000    5.2845031    617.28395    1.8198796 
  364000    5.4270365    617.28395     1.781146 
  366000    5.6066658    617.28395    1.7541492 
  368000    5.9680967    617.28395    1.7234668 
  370000    5.2064044    617.28395      1.83945 
  372000    5.3442074    617.28395    1.8199498 
  374000    5.2138327    617.28395    1.8153198 
  376000    5.5257247    617.28395    1.7826442 
  378000    5.3563828    617.28395    1.8072478 
  380000    5.1310978    617.28395    1.8352047 
  382000    5.2934088    617.28395    1.8005963 
  384000    5.7027171    617.28395    1.7410491 
  386000    5.3403029    617.28395    1.7948476 
  388000    5.5104893    617.28395    1.8072624 
  390000    5.3803593    617.28395    1.8053921 
  392000    5.2728494    617.28395    1.8072882 
  394000    5.9557323    617.28395     1.679568 
  396000    5.3191427    617.28395    1.8019812 
  398000    5.0232772    617.28395    1.8571357 
  400000    5.5417672    617.28395     1.763219 
  402000    5.5011532    617.28395    1.7688844 
  404000    5.4922714    617.28395     1.760301 
  406000    5.5909777    617.28395    1.7557508 
  408000    4.7941443    617.28395    1.8898878 
  410000    5.5891267    617.28395    1.7362905 
  412000    5.5543573    617.28395    1.7562336 
  414000    5.1979448    617.28395    1.8073786 
  416000    5.4689952    617.28395    1.7645295 
  418000    5.1976017    617.28395    1.8349998 
  420000    5.0767287    617.28395    1.8203592 
  422000     5.746609    617.28395    1.7061215 
  424000    5.1579706    617.28395    1.8041409 
  426000    4.9130019    617.28395    1.8791544 
  428000    5.8262835    617.28395     1.715001 
  430000    5.0505832    617.28395    1.8279973 
  432000    5.5439207    617.28395    1.7382151 
  434000    5.1721632    617.28395     1.799768 
  436000    5.0383999    617.28395    1.8313983 
  438000     5.187322    617.28395    1.8031245 
  440000      5.40455    617.28395    1.7718945 
  442000    5.2620399    617.28395    1.7910381 
  444000    5.5255652    617.28395    1.7303571 
  446000    5.3239177    617.28395    1.7676644 
  448000    5.2220201    617.28395    1.7665383 
  450000    5.1002541    617.28395    1.8129586 
  452000    5.2806841    617.28395     1.773356 
  454000    4.9814461    617.28395    1.8207003 
  456000    5.0365462    617.28395    1.8127404 
  458000    5.2519805    617.28395    1.7500973 
  460000    5.0161439    617.28395    1.8086536 
  462000    5.2266956    617.28395    1.7550743 
  464000    5.2062531    617.28395    1.7518422 
  466000    5.3860592    617.28395    1.7307599 
  468000    4.6740605    617.28395    1.8486396 
  470000    4.7841229    617.28395     1.809615 
  472000     5.261519    617.28395    1.7518367 
  474000    5.0691993    617.28395    1.7790403 
  476000    5.3587177    617.28395    1.7187636 
  478000    5.3492703    617.28395    1.7310397 
  480000    5.0737785    617.28395    1.7703801 
  482000    5.1220097    617.28395    1.7419058 
  484000    4.9166836    617.28395    1.7786096 
  486000    5.1539972    617.28395    1.7461823 
  488000    5.2927331    617.28395    1.7185034 
  490000    5.1520312    617.28395    1.7348729 
  492000    5.0688401    617.28395    1.7434023 
  494000    5.4295138    617.28395    1.6997176 
  496000    4.9765528    617.28395    1.7694975 
  498000    5.0761301    617.28395    1.7489871 
  500000    5.9007272    617.28395    1.6202567 
Loop time of 164.389 on 1 procs for 500000 steps with 500 atoms

Performance: 1313955.172 tau/day, 3041.563 timesteps/s
96.7% CPU use with 1 MPI tasks x no OpenMP threads

MPI task timing breakdown:
Section |  min time  |  avg time  |  max time  |%varavg| %total
---------------------------------------------------------------
Pair    | 135.62     | 135.62     | 135.62     |   0.0 | 82.50
Neigh   | 18.559     | 18.559     | 18.559     |   0.0 | 11.29
Comm    | 5.1826     | 5.1826     | 5.1826     |   0.0 |  3.15
Output  | 0.036383   | 0.036383   | 0.036383   |   0.0 |  0.02
Modify  | 4.0222     | 4.0222     | 4.0222     |   0.0 |  2.45
Other   |            | 0.9711     |            |       |  0.59

Nlocal:    500 ave 500 max 500 min
Histogram: 1 0 0 0 0 0 0 0 0 0
Nghost:    1782 ave 1782 max 1782 min
Histogram: 1 0 0 0 0 0 0 0 0 0
Neighs:    18175 ave 18175 max 18175 min
Histogram: 1 0 0 0 0 0 0 0 0 0

Total # of neighbors = 18175
Ave neighs/atom = 36.35
Neighbor list builds = 25000
Dangerous builds not checked
Total wall time: 0:02:44
