LAMMPS (19 Oct 2016)
# equation of state for LJ

variable temp equal 1.8
variable rho  equal 0.93

units lj
atom_style atomic

lattice    fcc ${rho}
lattice    fcc 0.93
Lattice spacing in x,y,z = 1.62627 1.62627 1.62627
region box block 0 5 0 5 0 5
create_box 1 box
Created orthogonal box = (0 0 0) to (8.13134 8.13134 8.13134)
  1 by 1 by 1 MPI processor grid
create_atoms 1 box
Created 500 atoms
mass       1 1.0

pair_style lj/cut 2.5
pair_coeff 1 1 1.0 1.0 2.5

velocity   all create ${temp} 87287
velocity   all create 1.8 87287

neighbor   0.3 bin
neigh_modify every 20 delay 0 check no

fix        1 all nvt temp ${temp} ${temp} 100
fix        1 all nvt temp 1.8 ${temp} 100
fix        1 all nvt temp 1.8 1.8 100
dump       1 all custom 70000 dump_t${temp}_r${rho}.lammpstrj id type x y z
dump       1 all custom 70000 dump_t1.8_r${rho}.lammpstrj id type x y z
dump       1 all custom 70000 dump_t1.8_r0.93.lammpstrj id type x y z
thermo     2000
thermo_style  custom step press vol temp
thermo_modify flush yes

run 500000
Neighbor list info ...
  1 neighbor list requests
  update every 20 steps, delay 0 steps, check no
  max neighbors/atom: 2000, page size: 100000
  master list distance cutoff = 2.8
  ghost atom cutoff = 2.8
  binsize = 1.4 -> bins = 6 6 6
Memory usage per processor = 3.32155 Mbytes
Step Press Volume Temp 
       0    -3.695208    537.63441          1.8 
    2000    2.2231844    537.63441   0.97850726 
    4000    2.0755803    537.63441    1.0066929 
    6000    2.8395907    537.63441   0.91546783 
    8000    2.7005667    537.63441   0.96873656 
   10000    2.5223608    537.63441     1.018613 
   12000    2.8913979    537.63441   0.99244099 
   14000    2.4984315    537.63441    1.0652921 
   16000    2.9116979    537.63441    1.0387045 
   18000    2.8670452    537.63441    1.0691731 
   20000    3.4816857    537.63441    1.0048715 
   22000    3.6483479    537.63441    1.0092245 
   24000    3.7297265    537.63441    1.0301482 
   26000    3.8347074    537.63441     1.061297 
   28000    3.8609443    537.63441    1.0917054 
   30000    3.8315156    537.63441    1.1244184 
   32000    3.9268889    537.63441    1.1394113 
   34000    5.0511854    537.63441    1.0148564 
   36000    5.2051142    537.63441    1.0431454 
   38000    5.3596758    537.63441    1.0423202 
   40000    5.7062132    537.63441    1.0371716 
   42000    5.7069101    537.63441    1.0725603 
   44000     5.868614    537.63441    1.0823082 
   46000     5.725686    537.63441    1.1549786 
   48000    6.0343113    537.63441    1.1231962 
   50000    6.3130085    537.63441    1.1420305 
   52000    6.1220751    537.63441    1.2160849 
   54000     6.578111    537.63441    1.1823757 
   56000    6.7201984    537.63441    1.1965325 
   58000    6.8460063    537.63441    1.2058095 
   60000    6.9453943    537.63441    1.2497674 
   62000    6.8611288    537.63441    1.2963129 
   64000    7.2123874    537.63441    1.2763451 
   66000     7.437594    537.63441     1.313138 
   68000    7.5280525    537.63441    1.3233553 
   70000    7.4565494    537.63441    1.3834143 
   72000    7.7482573    537.63441    1.3868525 
   74000    7.8604523    537.63441     1.406942 
   76000    8.4643435    537.63441     1.376171 
   78000    8.2561446    537.63441    1.4437842 
   80000    8.1955131    537.63441    1.4771461 
   82000    8.5474244    537.63441    1.4845107 
   84000    8.6118671    537.63441     1.494644 
   86000    8.9913547    537.63441    1.4885692 
   88000    8.8102392    537.63441    1.5771886 
   90000    9.2605584    537.63441    1.5355212 
   92000    9.1641782    537.63441    1.6015041 
   94000    9.2378402    537.63441    1.6184828 
   96000    9.5532203    537.63441    1.6116135 
   98000     9.843931    537.63441    1.5929603 
  100000     9.954841    537.63441    1.6006924 
  102000    9.5713476    537.63441    1.7073145 
  104000    9.9685717    537.63441    1.6947606 
  106000    10.226303    537.63441    1.6596397 
  108000    10.107871    537.63441    1.7207476 
  110000    10.564407    537.63441    1.6914027 
  112000    10.196605    537.63441    1.7646978 
  114000    10.993386    537.63441    1.6589196 
  116000    10.068321    537.63441    1.8334359 
  118000    10.313256    537.63441    1.8085071 
  120000    10.735597    537.63441    1.7779656 
  122000    10.237572    537.63441    1.8828463 
  124000    10.896153    537.63441    1.8169966 
  126000    10.669779    537.63441    1.8388348 
  128000    10.584219    537.63441     1.872659 
  130000    10.520874    537.63441    1.9022887 
  132000    10.912948    537.63441    1.8365799 
  134000    10.319479    537.63441    1.9447862 
  136000    10.605955    537.63441    1.8966072 
  138000    11.341999    537.63441    1.7955382 
  140000    10.751763    537.63441    1.9137313 
  142000    11.133059    537.63441    1.8322983 
  144000    10.315995    537.63441    1.9540907 
  146000    11.087508    537.63441    1.8492921 
  148000    10.838832    537.63441    1.8828107 
  150000    10.650986    537.63441    1.8979379 
  152000    10.781939    537.63441     1.870424 
  154000    10.792972    537.63441    1.8630797 
  156000    10.959422    537.63441    1.8252911 
  158000    10.397115    537.63441    1.8869147 
  160000     10.65977    537.63441    1.8516719 
  162000    10.756206    537.63441    1.8367602 
  164000    10.813129    537.63441    1.7896846 
  166000     10.53686    537.63441    1.8303475 
  168000    10.955461    537.63441     1.743532 
  170000     10.99963    537.63441    1.7114011 
  172000    10.424242    537.63441    1.7885734 
  174000    10.236647    537.63441    1.8288018 
  176000    10.384053    537.63441    1.7665528 
  178000     10.32427    537.63441    1.7773609 
  180000    10.311748    537.63441    1.7785587 
  182000    10.001243    537.63441    1.7978196 
  184000     10.10463    537.63441    1.7699711 
  186000    9.7045051    537.63441    1.8187292 
  188000    9.7658266    537.63441    1.8031575 
  190000    9.8890483    537.63441    1.7718111 
  192000    10.261323    537.63441    1.7077553 
  194000    10.213763    537.63441    1.7195807 
  196000    9.7094196    537.63441    1.7957936 
  198000    9.7377821    537.63441    1.7925171 
  200000    10.226283    537.63441    1.7009425 
  202000    10.314872    537.63441    1.6911089 
  204000     9.424181    537.63441    1.8325778 
  206000    9.9511168    537.63441    1.7639648 
  208000    10.215247    537.63441    1.7212037 
  210000    9.8994327    537.63441    1.7587876 
  212000    9.6177349    537.63441     1.834792 
  214000    10.369591    537.63441    1.7272438 
  216000    10.062115    537.63441    1.7539447 
  218000    10.111703    537.63441    1.7877343 
  220000    10.433864    537.63441    1.7445401 
  222000    9.7503226    537.63441    1.8561397 
  224000    10.572007    537.63441    1.7340083 
  226000    10.352619    537.63441    1.7851784 
  228000    10.229458    537.63441    1.8004158 
  230000    10.551905    537.63441    1.7725047 
  232000    11.103119    537.63441    1.6975566 
  234000    10.501098    537.63441    1.7886296 
  236000    10.634697    537.63441    1.7999224 
  238000    10.350105    537.63441    1.8349542 
  240000    10.640602    537.63441    1.8037591 
  242000    10.914355    537.63441    1.7749324 
  244000    10.189038    537.63441    1.8869043 
  246000    10.929278    537.63441    1.7852624 
  248000    10.779317    537.63441     1.803587 
  250000    10.590632    537.63441    1.8273348 
  252000    10.099015    537.63441    1.9137776 
  254000    10.540266    537.63441    1.8543702 
  256000    10.417449    537.63441    1.8763846 
  258000    10.741744    537.63441    1.8222518 
  260000    10.851672    537.63441    1.7898261 
  262000    10.827454    537.63441    1.8057263 
  264000    10.301619    537.63441    1.8939471 
  266000    10.901257    537.63441    1.7709543 
  268000    11.120979    537.63441    1.7385979 
  270000    10.287787    537.63441    1.8749377 
  272000    10.407962    537.63441      1.85142 
  274000    10.491419    537.63441     1.825557 
  276000    10.263713    537.63441    1.8608015 
  278000      11.0168    537.63441     1.739962 
  280000     10.40133    537.63441    1.8181777 
  282000    10.642787    537.63441    1.7896132 
  284000    10.801666    537.63441    1.7570312 
  286000    10.174749    537.63441    1.8343767 
  288000    10.217927    537.63441    1.8210254 
  290000    10.710289    537.63441    1.7379792 
  292000    10.345487    537.63441    1.8021302 
  294000    10.379459    537.63441    1.7851056 
  296000     10.59464    537.63441     1.744533 
  298000    10.909998    537.63441    1.6924396 
  300000    9.8075302    537.63441     1.861315 
  302000    9.9157855    537.63441     1.844089 
  304000     10.96252    537.63441    1.6685537 
  306000     10.14586    537.63441    1.7672813 
  308000     10.47603    537.63441    1.7445851 
  310000     10.04403    537.63441    1.8169556 
  312000    9.6510868    537.63441    1.8817573 
  314000    10.183292    537.63441    1.7665338 
  316000    10.345903    537.63441    1.7452684 
  318000    10.470653    537.63441    1.7547449 
  320000    10.020544    537.63441     1.807224 
  322000    9.8754584    537.63441    1.8518913 
  324000    10.343971    537.63441    1.7691546 
  326000    10.216879    537.63441    1.8022415 
  328000    10.335556    537.63441    1.7710072 
  330000    10.672161    537.63441    1.7385635 
  332000    10.103292    537.63441    1.8472493 
  334000    10.461926    537.63441    1.7534281 
  336000    11.136492    537.63441    1.6630664 
  338000    10.391243    537.63441    1.8102252 
  340000    10.723793    537.63441    1.7510679 
  342000    10.751989    537.63441     1.734853 
  344000    10.328265    537.63441    1.8257452 
  346000    10.580297    537.63441    1.7676497 
  348000    10.380125    537.63441    1.8092803 
  350000    10.775713    537.63441    1.7496976 
  352000    10.458331    537.63441     1.817954 
  354000    10.228032    537.63441    1.8455352 
  356000    10.781581    537.63441    1.7754978 
  358000    10.875341    537.63441    1.7575088 
  360000    10.433746    537.63441    1.8113794 
  362000    10.389023    537.63441    1.8173824 
  364000    10.972189    537.63441    1.7319799 
  366000    10.456812    537.63441    1.8336151 
  368000    10.433706    537.63441    1.8266619 
  370000    10.613863    537.63441    1.8006817 
  372000    10.663297    537.63441    1.8018678 
  374000    10.650061    537.63441    1.7791658 
  376000    10.372247    537.63441    1.8359912 
  378000    10.919872    537.63441    1.7486329 
  380000    10.514606    537.63441    1.7931256 
  382000    10.521066    537.63441    1.8118386 
  384000    10.638533    537.63441     1.784139 
  386000    9.9175287    537.63441    1.8981356 
  388000    10.466185    537.63441    1.8002613 
  390000     10.46204    537.63441    1.8077861 
  392000    10.210354    537.63441    1.8349041 
  394000    10.733441    537.63441    1.7557859 
  396000    10.409514    537.63441    1.8042292 
  398000    10.657885    537.63441     1.769335 
  400000    10.850766    537.63441    1.7334592 
  402000    10.828765    537.63441    1.7255513 
  404000     10.40361    537.63441    1.8239095 
  406000    10.222501    537.63441    1.8235145 
  408000    10.262633    537.63441    1.8225223 
  410000    10.468782    537.63441    1.8110637 
  412000    10.334657    537.63441    1.8070186 
  414000     10.10194    537.63441    1.8384568 
  416000    10.105764    537.63441    1.8244018 
  418000    10.421202    537.63441     1.773996 
  420000    10.402194    537.63441    1.7920802 
  422000    10.296172    537.63441    1.8142751 
  424000    10.326087    537.63441    1.8068737 
  426000    10.477297    537.63441    1.7617726 
  428000     10.17655    537.63441    1.8178996 
  430000    10.212649    537.63441    1.8140171 
  432000    10.604281    537.63441    1.7637162 
  434000     10.23441    537.63441    1.8109264 
  436000    10.315471    537.63441    1.7963345 
  438000    10.297912    537.63441     1.802868 
  440000    10.792159    537.63441    1.7315636 
  442000     10.59656    537.63441    1.7762807 
  444000    10.417562    537.63441    1.7879737 
  446000    10.207582    537.63441    1.8308541 
  448000    10.655056    537.63441    1.7469026 
  450000    10.040118    537.63441    1.8301591 
  452000     10.26083    537.63441    1.8165519 
  454000    10.155342    537.63441    1.8284954 
  456000    10.560294    537.63441    1.7786667 
  458000    10.679452    537.63441    1.7601701 
  460000    10.329021    537.63441    1.8067227 
  462000    10.112282    537.63441    1.8481208 
  464000    10.105897    537.63441    1.8542514 
  466000    10.084362    537.63441    1.8540724 
  468000    10.872731    537.63441    1.7527532 
  470000    10.566365    537.63441    1.7877755 
  472000    10.294613    537.63441    1.8270362 
  474000    10.564191    537.63441    1.7661801 
  476000    10.684432    537.63441    1.7805366 
  478000    10.082243    537.63441    1.8589003 
  480000    10.481777    537.63441    1.8024991 
  482000    10.551675    537.63441    1.7659651 
  484000    10.289255    537.63441    1.8393611 
  486000    10.638712    537.63441    1.7555433 
  488000    10.429391    537.63441     1.808343 
  490000    10.635487    537.63441     1.760891 
  492000    10.916912    537.63441      1.72552 
  494000    10.270237    537.63441    1.8236009 
  496000     10.70636    537.63441    1.7481749 
  498000    10.694952    537.63441    1.7587845 
  500000    10.609945    537.63441    1.7675574 
Loop time of 179.507 on 1 procs for 500000 steps with 500 atoms

Performance: 1203293.971 tau/day, 2785.403 timesteps/s
96.2% CPU use with 1 MPI tasks x no OpenMP threads

MPI task timing breakdown:
Section |  min time  |  avg time  |  max time  |%varavg| %total
---------------------------------------------------------------
Pair    | 145.37     | 145.37     | 145.37     |   0.0 | 80.98
Neigh   | 23.603     | 23.603     | 23.603     |   nan | 13.15
Comm    | 5.518      | 5.518      | 5.518      |   0.0 |  3.07
Output  | 0.012613   | 0.012613   | 0.012613   |   0.0 |  0.01
Modify  | 3.9928     | 3.9928     | 3.9928     |   0.0 |  2.22
Other   |            | 1.008      |            |       |  0.56

Nlocal:    500 ave 500 max 500 min
Histogram: 1 0 0 0 0 0 0 0 0 0
Nghost:    1896 ave 1896 max 1896 min
Histogram: 1 0 0 0 0 0 0 0 0 0
Neighs:    20943 ave 20943 max 20943 min
Histogram: 1 0 0 0 0 0 0 0 0 0

Total # of neighbors = 20943
Ave neighs/atom = 41.886
Neighbor list builds = 25000
Dangerous builds not checked
Total wall time: 0:02:59
