LAMMPS (19 Oct 2016)
# equation of state for LJ

variable temp equal 1.8
variable rho  equal 0.87

units lj
atom_style atomic

lattice    fcc ${rho}
lattice    fcc 0.87
Lattice spacing in x,y,z = 1.66283 1.66283 1.66283
region box block 0 5 0 5 0 5
create_box 1 box
Created orthogonal box = (0 0 0) to (8.31413 8.31413 8.31413)
  1 by 1 by 1 MPI processor grid
create_atoms 1 box
Created 500 atoms
mass       1 1.0

pair_style lj/cut 2.5
pair_coeff 1 1 1.0 1.0 2.5

velocity   all create ${temp} 87287
velocity   all create 1.8 87287

neighbor   0.3 bin
neigh_modify every 20 delay 0 check no

fix        1 all nvt temp ${temp} ${temp} 100
fix        1 all nvt temp 1.8 ${temp} 100
fix        1 all nvt temp 1.8 1.8 100
dump       1 all custom 70000 dump_t${temp}_r${rho}.lammpstrj id type x y z
dump       1 all custom 70000 dump_t1.8_r${rho}.lammpstrj id type x y z
dump       1 all custom 70000 dump_t1.8_r0.87.lammpstrj id type x y z
thermo     2000
thermo_style  custom step press vol temp
thermo_modify flush yes

run 500000
Neighbor list info ...
  1 neighbor list requests
  update every 20 steps, delay 0 steps, check no
  max neighbors/atom: 2000, page size: 100000
  master list distance cutoff = 2.8
  ghost atom cutoff = 2.8
  binsize = 1.4 -> bins = 6 6 6
Memory usage per processor = 3.32155 Mbytes
Step Press Volume Temp 
       0   -4.5552748    574.71264          1.8 
    2000    2.4814151    574.71264   0.84826713 
    4000    2.4930507    574.71264   0.86886804 
    6000     2.717761    574.71264   0.84948635 
    8000    2.7017507    574.71264   0.89342221 
   10000    2.4022711    574.71264   0.94542559 
   12000     2.802771    574.71264   0.90504809 
   14000     2.915367    574.71264   0.93204654 
   16000    2.8831812    574.71264   0.94245066 
   18000    3.3461379    574.71264   0.92665077 
   20000    2.8063369    574.71264      1.01329 
   22000    3.1381935    574.71264   0.99404947 
   24000     3.256845    574.71264    1.0311879 
   26000    3.2659157    574.71264     1.040715 
   28000    3.9281468    574.71264   0.98986983 
   30000    3.6449546    574.71264     1.042606 
   32000    3.6849189    574.71264    1.0820366 
   34000    3.9282617    574.71264    1.0811156 
   36000    3.9348618    574.71264    1.1222176 
   38000    4.2379272    574.71264      1.11265 
   40000    4.2473644    574.71264    1.1363201 
   42000    4.0570232    574.71264    1.2180629 
   44000    4.2917832    574.71264    1.2104939 
   46000    4.6532186    574.71264    1.2073431 
   48000    4.4485196    574.71264    1.2740083 
   50000    4.6877347    574.71264    1.2729216 
   52000    4.8510515    574.71264    1.2831654 
   54000    4.8391261    574.71264    1.3345975 
   56000    5.1139909    574.71264    1.3233664 
   58000    5.2724326    574.71264    1.3419263 
   60000    5.3875352    574.71264    1.3620869 
   62000     5.546159    574.71264    1.3982576 
   64000    5.4753317    574.71264    1.4422294 
   66000    5.7677804    574.71264     1.438569 
   68000    5.5869532    574.71264    1.4973643 
   70000    6.1524167    574.71264    1.4613116 
   72000    6.0510648    574.71264    1.5048766 
   74000    6.2251934    574.71264    1.5143688 
   76000     6.259047    574.71264    1.5551922 
   78000    6.4353318    574.71264    1.5622323 
   80000    6.9997077    574.71264    1.5291102 
   82000    6.2481546    574.71264    1.6746877 
   84000    6.6054933    574.71264    1.6475831 
   86000    6.6976745    574.71264    1.6616512 
   88000    6.8697308    574.71264    1.6794717 
   90000    7.1671405    574.71264    1.6434361 
   92000    6.8502491    574.71264    1.7286019 
   94000    7.0513813    574.71264    1.7474363 
   96000    6.9564031    574.71264    1.7739085 
   98000    7.1223877    574.71264    1.7704633 
  100000     7.148453    574.71264    1.8070616 
  102000    7.1689313    574.71264    1.8074865 
  104000    7.6149375    574.71264    1.7738211 
  106000    7.5706891    574.71264    1.8016146 
  108000    7.3847108    574.71264    1.8622617 
  110000    7.6981467    574.71264    1.8305722 
  112000     7.390544    574.71264     1.888344 
  114000    7.7369965    574.71264    1.8584856 
  116000    7.3790646    574.71264    1.9114511 
  118000    7.9274499    574.71264    1.8302021 
  120000    7.8462294    574.71264    1.8525058 
  122000    7.7346739    574.71264    1.8806819 
  124000    7.5255712    574.71264    1.8973062 
  126000    8.0041008    574.71264    1.8581505 
  128000    7.9158558    574.71264    1.8574358 
  130000    7.5161972    574.71264    1.9229409 
  132000    7.9788161    574.71264    1.8715031 
  134000    7.5754662    574.71264    1.8946898 
  136000    7.9280704    574.71264    1.8517728 
  138000    7.9112742    574.71264    1.8405355 
  140000    7.7643792    574.71264    1.8650076 
  142000    7.9239617    574.71264    1.8434368 
  144000    7.6993719    574.71264    1.8585733 
  146000    7.9500108    574.71264    1.8036775 
  148000    7.5848181    574.71264    1.8652964 
  150000    7.4863142    574.71264    1.8543009 
  152000    7.8974688    574.71264    1.7839204 
  154000    7.5458168    574.71264     1.838327 
  156000    7.3161708    574.71264    1.8530918 
  158000    7.5426316    574.71264    1.8105278 
  160000    7.3518212    574.71264    1.8199125 
  162000     7.462364    574.71264    1.7838592 
  164000    7.6232572    574.71264    1.7527502 
  166000    7.6582744    574.71264    1.7608899 
  168000    7.3536926    574.71264    1.7838482 
  170000    6.9365083    574.71264    1.8298562 
  172000    7.3006898    574.71264    1.7662503 
  174000    7.0584842    574.71264    1.7928406 
  176000    7.4817793    574.71264    1.7287144 
  178000    7.1475705    574.71264    1.7588488 
  180000    7.8332662    574.71264    1.6776111 
  182000    7.6221875    574.71264    1.6997348 
  184000    7.4781591    574.71264    1.7130482 
  186000    7.0001685    574.71264    1.7914841 
  188000    6.9981496    574.71264    1.7904756 
  190000    7.4887302    574.71264    1.7075634 
  192000    7.3924364    574.71264     1.757108 
  194000    7.4465396    574.71264    1.7521084 
  196000    7.6256925    574.71264    1.7130571 
  198000    7.4299151    574.71264    1.7466368 
  200000    7.5192847    574.71264    1.7489348 
  202000    8.1420392    574.71264    1.6457984 
  204000    7.6436368    574.71264    1.7424306 
  206000    7.7546025    574.71264    1.7335314 
  208000    7.0695375    574.71264    1.8285218 
  210000    7.7324552    574.71264    1.7413741 
  212000    7.5597991    574.71264    1.7672756 
  214000    7.5886358    574.71264    1.7722772 
  216000    7.7244468    574.71264    1.7687212 
  218000    7.5266625    574.71264    1.8056309 
  220000    7.3918836    574.71264    1.8268729 
  222000    7.7500828    574.71264    1.8026844 
  224000    7.4103287    574.71264    1.8642931 
  226000    7.5318873    574.71264    1.8383397 
  228000    7.8930364    574.71264    1.7849303 
  230000    8.1547602    574.71264    1.7335785 
  232000    8.0909278    574.71264     1.763062 
  234000    7.7419846    574.71264    1.8196634 
  236000    8.2527648    574.71264    1.7368872 
  238000    7.9160118    574.71264    1.7817482 
  240000    7.6884522    574.71264    1.8250624 
  242000    8.0792272    574.71264    1.7709788 
  244000    7.7652428    574.71264    1.8211452 
  246000    7.7382389    574.71264    1.8150693 
  248000    7.8042472    574.71264    1.8064612 
  250000    7.9373784    574.71264    1.7993256 
  252000      7.65504    574.71264    1.8323109 
  254000    7.4148152    574.71264    1.8664934 
  256000    7.8535587    574.71264    1.7972128 
  258000      7.93972    574.71264    1.7615282 
  260000    7.7632388    574.71264     1.800666 
  262000    7.2818751    574.71264    1.8749326 
  264000     8.033161    574.71264    1.7380146 
  266000    8.0322238    574.71264    1.7451575 
  268000    7.7619551    574.71264    1.7881017 
  270000    7.7858133    574.71264    1.7680087 
  272000    7.6978688    574.71264    1.7849271 
  274000    7.7789667    574.71264    1.7808555 
  276000    7.6686328    574.71264    1.7508942 
  278000    7.3799347    574.71264    1.8130468 
  280000    7.3060214    574.71264    1.8233023 
  282000    7.1320844    574.71264    1.8543998 
  284000    7.3602828    574.71264    1.8165227 
  286000    7.3331847    574.71264    1.8187828 
  288000    7.1074583    574.71264    1.8603448 
  290000    7.5556977    574.71264    1.7632587 
  292000    7.4676609    574.71264    1.7894988 
  294000    7.3136508    574.71264    1.8124037 
  296000    7.6257165    574.71264    1.7716719 
  298000    7.0442898    574.71264    1.8523083 
  300000    7.5475224    574.71264    1.7710387 
  302000    7.5344382    574.71264    1.7808675 
  304000    7.5174061    574.71264    1.7943841 
  306000    7.4631935    574.71264     1.787412 
  308000    7.5270679    574.71264    1.7804271 
  310000    7.5604172    574.71264    1.7683645 
  312000    7.5731712    574.71264    1.7858038 
  314000    7.3921688    574.71264     1.799465 
  316000    7.9498784    574.71264    1.7253448 
  318000    7.9260232    574.71264    1.7290826 
  320000    7.6994512    574.71264    1.7681594 
  322000    7.5767308    574.71264    1.7808843 
  324000     7.562226    574.71264    1.7990585 
  326000    7.4955591    574.71264    1.7918623 
  328000    7.3759711    574.71264    1.8210774 
  330000    7.4766587    574.71264     1.833097 
  332000    7.4751737    574.71264    1.8305695 
  334000     7.503676    574.71264    1.8088906 
  336000    7.1819913    574.71264    1.8702989 
  338000     8.055184    574.71264    1.7378198 
  340000    7.7263626    574.71264    1.7813183 
  342000    7.5716477    574.71264    1.8014697 
  344000     7.391674    574.71264    1.8314002 
  346000    7.2982314    574.71264     1.858941 
  348000     7.378003    574.71264    1.8559711 
  350000    7.8429796    574.71264    1.7622991 
  352000    7.6478391    574.71264    1.7960757 
  354000    7.8851186    574.71264    1.7536471 
  356000    7.7815733    574.71264    1.8094946 
  358000     7.541482    574.71264    1.8183637 
  360000    7.8728685    574.71264    1.7646382 
  362000    7.1130279    574.71264    1.8692347 
  364000     7.626569    574.71264    1.7931347 
  366000    7.4562009    574.71264    1.8290239 
  368000    7.4635188    574.71264    1.8138674 
  370000    7.5856441    574.71264    1.7982082 
  372000    7.6655914    574.71264     1.777053 
  374000    7.7136393    574.71264    1.7805917 
  376000    7.1051195    574.71264    1.8870167 
  378000    7.7865285    574.71264    1.7698519 
  380000    7.6320276    574.71264    1.7900752 
  382000    7.5582545    574.71264    1.7856374 
  384000    7.4692946    574.71264    1.7950527 
  386000     7.606183    574.71264    1.8030036 
  388000    7.5084651    574.71264    1.8036187 
  390000    7.1572106    574.71264     1.862765 
  392000    7.2203734    574.71264    1.8541364 
  394000    7.9963823    574.71264    1.7269275 
  396000    7.4068971    574.71264    1.8187937 
  398000    7.5318447    574.71264    1.8131733 
  400000    7.2262957    574.71264     1.829405 
  402000    7.4178226    574.71264    1.8129937 
  404000     6.659409    574.71264    1.9294623 
  406000    7.7366715    574.71264    1.7589791 
  408000    7.5397349    574.71264    1.7928985 
  410000    7.4782426    574.71264    1.8172143 
  412000    7.3527485    574.71264     1.823479 
  414000    7.8007034    574.71264    1.7419812 
  416000    7.6360106    574.71264    1.7834612 
  418000    7.6606964    574.71264    1.7781255 
  420000    7.5872839    574.71264    1.7856284 
  422000    7.5222419    574.71264    1.7905603 
  424000    7.7289243    574.71264    1.7657028 
  426000    7.1507554    574.71264    1.8494426 
  428000    7.5930275    574.71264    1.7628374 
  430000    8.0765253    574.71264     1.709511 
  432000    7.1539583    574.71264    1.8510846 
  434000    7.5911484    574.71264    1.7910742 
  436000    6.8580087    574.71264    1.9189303 
  438000    7.6217889    574.71264    1.7761309 
  440000    7.6079294    574.71264    1.7728777 
  442000    7.7077435    574.71264    1.7724702 
  444000    7.7301305    574.71264    1.7593967 
  446000    7.5803329    574.71264    1.7958164 
  448000     7.573476    574.71264    1.7812287 
  450000    7.9892167    574.71264    1.7299538 
  452000    7.7571032    574.71264    1.7638733 
  454000    7.2986466    574.71264    1.8236113 
  456000    8.0997462    574.71264    1.7014603 
  458000    7.5927205    574.71264    1.7939915 
  460000    7.4493104    574.71264    1.7998222 
  462000    8.1112211    574.71264      1.69311 
  464000    7.4627522    574.71264    1.8026895 
  466000    7.2127907    574.71264    1.8526748 
  468000    7.9412455    574.71264     1.723959 
  470000    7.5604187    574.71264    1.7943903 
  472000    7.1629164    574.71264    1.8570151 
  474000    7.8251271    574.71264    1.7283615 
  476000    7.6075615    574.71264    1.7678787 
  478000    7.5243009    574.71264    1.8033772 
  480000    8.0396234    574.71264    1.7052536 
  482000    7.5359277    574.71264     1.795723 
  484000    7.3001315    574.71264      1.84379 
  486000    7.8755182    574.71264    1.7408743 
  488000    7.4435726    574.71264    1.7926549 
  490000    8.1930133    574.71264    1.6795006 
  492000    7.5438362    574.71264    1.7826412 
  494000    7.9799431    574.71264     1.719862 
  496000    7.8931782    574.71264    1.7464252 
  498000    7.3253485    574.71264    1.8069394 
  500000    7.8933696    574.71264    1.7407573 
Loop time of 176.234 on 1 procs for 500000 steps with 500 atoms

Performance: 1225641.448 tau/day, 2837.133 timesteps/s
95.5% CPU use with 1 MPI tasks x no OpenMP threads

MPI task timing breakdown:
Section |  min time  |  avg time  |  max time  |%varavg| %total
---------------------------------------------------------------
Pair    | 142.26     | 142.26     | 142.26     |   0.0 | 80.72
Neigh   | 23.177     | 23.177     | 23.177     |   nan | 13.15
Comm    | 5.5987     | 5.5987     | 5.5987     |   0.0 |  3.18
Output  | 0.02482    | 0.02482    | 0.02482    |   0.0 |  0.01
Modify  | 4.1554     | 4.1554     | 4.1554     |   0.0 |  2.36
Other   |            | 1.017      |            |       |  0.58

Nlocal:    500 ave 500 max 500 min
Histogram: 1 0 0 0 0 0 0 0 0 0
Nghost:    1858 ave 1858 max 1858 min
Histogram: 1 0 0 0 0 0 0 0 0 0
Neighs:    19501 ave 19501 max 19501 min
Histogram: 1 0 0 0 0 0 0 0 0 0

Total # of neighbors = 19501
Ave neighs/atom = 39.002
Neighbor list builds = 25000
Dangerous builds not checked
Total wall time: 0:02:56
