LAMMPS (19 Oct 2016)
# equation of state for LJ

variable temp equal 1.8
variable rho  equal 0.89

units lj
atom_style atomic

lattice    fcc ${rho}
lattice    fcc 0.89
Lattice spacing in x,y,z = 1.65028 1.65028 1.65028
region box block 0 5 0 5 0 5
create_box 1 box
Created orthogonal box = (0 0 0) to (8.25138 8.25138 8.25138)
  1 by 1 by 1 MPI processor grid
create_atoms 1 box
Created 500 atoms
mass       1 1.0

pair_style lj/cut 2.5
pair_coeff 1 1 1.0 1.0 2.5

velocity   all create ${temp} 87287
velocity   all create 1.8 87287

neighbor   0.3 bin
neigh_modify every 20 delay 0 check no

fix        1 all nvt temp ${temp} ${temp} 100
fix        1 all nvt temp 1.8 ${temp} 100
fix        1 all nvt temp 1.8 1.8 100
dump       1 all custom 70000 dump_t${temp}_r${rho}.lammpstrj id type x y z
dump       1 all custom 70000 dump_t1.8_r${rho}.lammpstrj id type x y z
dump       1 all custom 70000 dump_t1.8_r0.89.lammpstrj id type x y z
thermo     2000
thermo_style  custom step press vol temp
thermo_modify flush yes

run 500000
Neighbor list info ...
  1 neighbor list requests
  update every 20 steps, delay 0 steps, check no
  max neighbors/atom: 2000, page size: 100000
  master list distance cutoff = 2.8
  ghost atom cutoff = 2.8
  binsize = 1.4 -> bins = 6 6 6
Memory usage per processor = 3.32155 Mbytes
Step Press Volume Temp 
       0   -4.3490719    561.79775          1.8 
    2000    2.0685071    561.79775   0.90835224 
    4000    2.9219557    561.79775   0.82362786 
    6000    2.6887565    561.79775   0.86809973 
    8000    3.0745955    561.79775    0.8511576 
   10000    3.1184727    561.79775   0.86853057 
   12000    3.2084992    561.79775   0.87016119 
   14000    3.5848124    561.79775   0.85261115 
   16000    3.4209191    561.79775   0.89178243 
   18000    3.3992088    561.79775   0.91795148 
   20000    3.4306063    561.79775   0.94274074 
   22000    3.5077919    561.79775   0.96110931 
   24000    3.9201754    561.79775   0.93412035 
   26000    3.7413971    561.79775   0.98543248 
   28000    3.7510924    561.79775    1.0257973 
   30000    4.1054884    561.79775    1.0114291 
   32000    4.3123702    561.79775    1.0216073 
   34000    4.2796392    561.79775    1.0446562 
   36000     4.334651    561.79775     1.062091 
   38000    4.4201972    561.79775    1.1043378 
   40000    4.4472837    561.79775    1.1324532 
   42000    4.7412186    561.79775    1.1344446 
   44000    4.9696376    561.79775    1.1408466 
   46000    4.9625394    561.79775     1.185222 
   48000    5.3775613    561.79775    1.1573354 
   50000    4.9663661    561.79775    1.2551131 
   52000    5.1802356    561.79775    1.2670877 
   54000     5.407631    561.79775    1.2786179 
   56000    5.8722631    561.79775    1.2469329 
   58000    5.7538295    561.79775    1.2981755 
   60000    5.7974194    561.79775    1.3352951 
   62000    5.7112578    561.79775    1.3898543 
   64000    5.8842485    561.79775    1.4058444 
   66000    6.3485522    561.79775    1.3709847 
   68000    6.2176681    561.79775    1.4425232 
   70000      6.37348    561.79775    1.4547273 
   72000    6.4678538    561.79775    1.4833973 
   74000    6.7136226    561.79775    1.4818607 
   76000    6.8443487    561.79775    1.4998678 
   78000    6.8163391    561.79775    1.5570813 
   80000    6.9943839    561.79775    1.5675035 
   82000    7.0750935    561.79775     1.592748 
   84000    7.0430384    561.79775     1.655675 
   86000    7.4456741    561.79775    1.6060587 
   88000    7.7492338    561.79775    1.5995064 
   90000    8.2265138    561.79775    1.5740478 
   92000    7.6170022    561.79775    1.6759087 
   94000    7.4832113    561.79775    1.7373337 
   96000    7.8808448    561.79775    1.6963008 
   98000    8.0103783    561.79775    1.7343815 
  100000    8.0295758    561.79775    1.7475095 
  102000    8.2797807    561.79775    1.7432353 
  104000      8.20885    561.79775    1.7769035 
  106000     8.169458    561.79775    1.8042481 
  108000    8.5074669    561.79775    1.7828274 
  110000    8.6647718    561.79775    1.7728993 
  112000     8.247833    561.79775    1.8419646 
  114000     8.678094    561.79775    1.8421802 
  116000    8.6206921    561.79775    1.8391504 
  118000    8.0003252    561.79775    1.9458232 
  120000     8.541209    561.79775    1.8778172 
  122000    8.4954089    561.79775    1.8810528 
  124000      8.61916    561.79775    1.8993782 
  126000     8.534598    561.79775    1.8939782 
  128000     9.196744    561.79775    1.8082434 
  130000    9.0226882    561.79775    1.8266148 
  132000    8.8988774    561.79775     1.853547 
  134000    8.8168513    561.79775    1.8672204 
  136000    9.0959868    561.79775    1.8282378 
  138000    8.8765211    561.79775    1.8473596 
  140000    8.4367511    561.79775    1.9212125 
  142000    8.9345495    561.79775    1.8396087 
  144000    8.9775246    561.79775     1.806683 
  146000    8.8769248    561.79775    1.8326424 
  148000    8.6935867    561.79775    1.8398562 
  150000     8.536141    561.79775     1.865438 
  152000    8.7943029    561.79775    1.8079307 
  154000    8.6200033    561.79775    1.8366428 
  156000    8.5660627    561.79775    1.8081396 
  158000    8.6846059    561.79775    1.7860814 
  160000    8.6161758    561.79775    1.7927399 
  162000    8.4847215    561.79775    1.7957457 
  164000    8.5763049    561.79775    1.7666745 
  166000    8.2740693    561.79775     1.782243 
  168000    8.1244372    561.79775    1.8142045 
  170000    8.3448157    561.79775    1.7699883 
  172000    8.1738324    561.79775    1.7688085 
  174000    8.0173618    561.79775    1.8059379 
  176000    8.3897886    561.79775    1.7171666 
  178000    7.7019051    561.79775    1.8148364 
  180000    7.7403216    561.79775    1.8196299 
  182000    8.1337221    561.79775    1.7605067 
  184000     8.018442    561.79775    1.7697005 
  186000    7.8941645    561.79775    1.7874889 
  188000    8.0466284    561.79775       1.7464 
  190000     8.417403    561.79775    1.7013906 
  192000    8.5584849    561.79775    1.6776094 
  194000    7.7858338    561.79775    1.7906452 
  196000    8.4271868    561.79775     1.709478 
  198000     7.943932    561.79775    1.7764901 
  200000    8.3789108    561.79775    1.7329522 
  202000     7.947216    561.79775     1.783914 
  204000    8.0169061    561.79775     1.776656 
  206000     8.360911    561.79775    1.7534109 
  208000    8.5867969    561.79775    1.7239257 
  210000    7.8319136    561.79775    1.8465101 
  212000    8.2711074    561.79775    1.7821684 
  214000    8.7431913    561.79775    1.7237227 
  216000    8.0444771    561.79775    1.8237922 
  218000    8.5562019    561.79775    1.7764522 
  220000     8.443254    561.79775    1.7824415 
  222000    8.7832956    561.79775    1.7302905 
  224000    8.4651227    561.79775    1.8093817 
  226000    8.1722841    561.79775    1.8527007 
  228000    9.0096355    561.79775    1.7452266 
  230000    8.1594578    561.79775    1.8699894 
  232000    8.3668591    561.79775    1.8288649 
  234000    8.7869989    561.79775    1.7821768 
  236000    8.3604838    561.79775    1.8604073 
  238000    8.3055196    561.79775    1.8372833 
  240000    8.7276217    561.79775    1.8112234 
  242000    8.4126079    561.79775    1.8600088 
  244000    9.2862744    561.79775    1.7100744 
  246000    8.6916912    561.79775    1.7869983 
  248000    8.4380751    561.79775    1.8553708 
  250000    8.9160446    561.79775    1.7741307 
  252000    8.5691465    561.79775    1.8206485 
  254000    8.9497005    561.79775    1.7618529 
  256000    8.7051437    561.79775    1.8141814 
  258000    9.0568536    561.79775    1.7602785 
  260000    8.4961311    561.79775    1.8147844 
  262000    8.8661819    561.79775    1.7647199 
  264000    8.6101583    561.79775    1.8006578 
  266000    8.5937872    561.79775    1.7817135 
  268000    8.3749142    561.79775    1.8321517 
  270000    8.2145972    561.79775    1.8505076 
  272000    8.5055871    561.79775    1.8017832 
  274000    8.4117841    561.79775    1.8069665 
  276000    8.8361006    561.79775    1.7305326 
  278000    8.7221166    561.79775    1.7561601 
  280000    7.6960225    561.79775    1.9095968 
  282000    8.4384713    561.79775    1.7916204 
  284000    8.7724801    561.79775    1.7286862 
  286000    8.3556146    561.79775    1.7800398 
  288000    8.5522475    561.79775    1.7519325 
  290000    8.3133223    561.79775    1.7964377 
  292000    8.4421779    561.79775     1.768901 
  294000    8.3777179    561.79775     1.773482 
  296000    8.6192262    561.79775    1.7176834 
  298000    8.1168314    561.79775    1.8156106 
  300000    7.9732298    561.79775    1.8547596 
  302000    8.4944477    561.79775    1.7521204 
  304000    8.2619874    561.79775    1.7995316 
  306000     7.898522    561.79775    1.8642604 
  308000    8.1310967    561.79775    1.8274773 
  310000    8.2560149    561.79775    1.7829915 
  312000    8.2790125    561.79775    1.7947686 
  314000    8.2950279    561.79775    1.7779069 
  316000    8.5182037    561.79775    1.7573121 
  318000    8.7598361    561.79775    1.7372372 
  320000    8.5818373    561.79775    1.7499936 
  322000     8.566608    561.79775    1.7524044 
  324000    8.1743224    561.79775    1.8315736 
  326000    8.5743524    561.79775    1.7623238 
  328000    8.2662956    561.79775    1.8181642 
  330000    8.5752171    561.79775      1.77915 
  332000     8.515782    561.79775    1.7830465 
  334000    8.4862892    561.79775    1.7898938 
  336000    8.5954655    561.79775    1.7824412 
  338000    8.5387364    561.79775    1.7964415 
  340000    8.8261942    561.79775    1.7281921 
  342000    8.1198648    561.79775    1.8473194 
  344000    8.2640825    561.79775    1.8457018 
  346000    8.4937879    561.79775    1.7959377 
  348000    8.3286645    561.79775    1.8317811 
  350000    8.8050316    561.79775    1.7569448 
  352000    8.4539562    561.79775    1.8023771 
  354000    8.3182462    561.79775    1.8458584 
  356000    8.7699963    561.79775    1.7725427 
  358000    8.1403696    561.79775    1.8685707 
  360000    8.5652028    561.79775    1.7782081 
  362000     8.393913    561.79775    1.8222365 
  364000    8.6700912    561.79775    1.7892307 
  366000    8.2168904    561.79775    1.8625669 
  368000    8.1095147    561.79775    1.8678226 
  370000    8.5624057    561.79775    1.7829725 
  372000    8.5719666    561.79775    1.8010229 
  374000    8.0278507    561.79775    1.8829378 
  376000    8.0921197    561.79775    1.8600208 
  378000    8.7215829    561.79775    1.7599393 
  380000    8.1861487    561.79775    1.8435263 
  382000    8.7801241    561.79775    1.7382838 
  384000    8.2662909    561.79775    1.8235599 
  386000    8.9103643    561.79775    1.7122993 
  388000    8.2306924    561.79775    1.8160496 
  390000    8.8487648    561.79775    1.7381235 
  392000    7.9217122    561.79775    1.8634421 
  394000    8.5830032    561.79775    1.7725784 
  396000    8.6294678    561.79775    1.7572196 
  398000    8.4417766    561.79775    1.7878207 
  400000    7.9032612    561.79775    1.8719613 
  402000    8.3319702    561.79775    1.8041138 
  404000     8.405726    561.79775    1.7874081 
  406000     8.627812    561.79775    1.7718783 
  408000    8.0083683    561.79775    1.8476581 
  410000    8.2428873    561.79775    1.8074535 
  412000    8.8537885    561.79775    1.7282927 
  414000    7.9466205    561.79775    1.8547982 
  416000    8.3044172    561.79775    1.8156277 
  418000    8.6618378    561.79775    1.7409814 
  420000    8.4716389    561.79775    1.7757816 
  422000    8.6749621    561.79775    1.7612013 
  424000    8.3983292    561.79775    1.7950505 
  426000    8.1694368    561.79775    1.8310521 
  428000    8.2711944    561.79775    1.8228165 
  430000    8.0625139    561.79775    1.8539682 
  432000    8.2780093    561.79775    1.8097701 
  434000    8.1316943    561.79775    1.8288972 
  436000    8.6037218    561.79775    1.7656659 
  438000    8.6416073    561.79775    1.7516361 
  440000    8.6430542    561.79775    1.7549288 
  442000    8.5159644    561.79775    1.7671142 
  444000    8.4918569    561.79775    1.7785953 
  446000    8.7183797    561.79775    1.7416899 
  448000    8.8394934    561.79775    1.7458487 
  450000    8.2523777    561.79775    1.8202435 
  452000    8.6118323    561.79775    1.7786322 
  454000    8.2854619    561.79775    1.8195765 
  456000    8.1975945    561.79775    1.8269606 
  458000    8.5472578    561.79775    1.7611026 
  460000    8.1993688    561.79775    1.8410297 
  462000    8.2037618    561.79775    1.8399833 
  464000    8.6910733    561.79775    1.7534825 
  466000    8.5249806    561.79775    1.7890055 
  468000    8.7924591    561.79775    1.7204258 
  470000    8.2058827    561.79775    1.8168541 
  472000    8.3097533    561.79775    1.8237654 
  474000    8.8716865    561.79775    1.7212076 
  476000    8.6148998    561.79775    1.7542153 
  478000    8.4261799    561.79775    1.7827204 
  480000    8.3847912    561.79775    1.8110779 
  482000    8.3622345    561.79775     1.814367 
  484000    8.2587821    561.79775    1.8076501 
  486000     8.791827    561.79775    1.7370368 
  488000    8.3455799    561.79775    1.8016757 
  490000    8.4619778    561.79775    1.7801855 
  492000    8.4883911    561.79775    1.8202029 
  494000    8.4446544    561.79775    1.7778819 
  496000     8.377775    561.79775    1.7851891 
  498000    8.3700771    561.79775    1.7973537 
  500000     8.055598    561.79775    1.8661099 
Loop time of 175.02 on 1 procs for 500000 steps with 500 atoms

Performance: 1234144.069 tau/day, 2856.815 timesteps/s
96.7% CPU use with 1 MPI tasks x no OpenMP threads

MPI task timing breakdown:
Section |  min time  |  avg time  |  max time  |%varavg| %total
---------------------------------------------------------------
Pair    | 141.16     | 141.16     | 141.16     |   0.0 | 80.65
Neigh   | 23.392     | 23.392     | 23.392     |   nan | 13.37
Comm    | 5.4363     | 5.4363     | 5.4363     |   0.0 |  3.11
Output  | 0.037      | 0.037      | 0.037      |   0.0 |  0.02
Modify  | 4.0186     | 4.0186     | 4.0186     |   0.0 |  2.30
Other   |            | 0.9809     |            |       |  0.56

Nlocal:    500 ave 500 max 500 min
Histogram: 1 0 0 0 0 0 0 0 0 0
Nghost:    1875 ave 1875 max 1875 min
Histogram: 1 0 0 0 0 0 0 0 0 0
Neighs:    20004 ave 20004 max 20004 min
Histogram: 1 0 0 0 0 0 0 0 0 0

Total # of neighbors = 20004
Ave neighs/atom = 40.008
Neighbor list builds = 25000
Dangerous builds not checked
Total wall time: 0:02:55
