LAMMPS (19 Oct 2016)
# equation of state for LJ

variable temp equal 1.8
variable rho  equal 0.86

units lj
atom_style atomic

lattice    fcc ${rho}
lattice    fcc 0.86
Lattice spacing in x,y,z = 1.66925 1.66925 1.66925
region box block 0 5 0 5 0 5
create_box 1 box
Created orthogonal box = (0 0 0) to (8.34623 8.34623 8.34623)
  1 by 1 by 1 MPI processor grid
create_atoms 1 box
Created 500 atoms
mass       1 1.0

pair_style lj/cut 2.5
pair_coeff 1 1 1.0 1.0 2.5

velocity   all create ${temp} 87287
velocity   all create 1.8 87287

neighbor   0.3 bin
neigh_modify every 20 delay 0 check no

fix        1 all nvt temp ${temp} ${temp} 100
fix        1 all nvt temp 1.8 ${temp} 100
fix        1 all nvt temp 1.8 1.8 100
dump       1 all custom 70000 dump_t${temp}_r${rho}.lammpstrj id type x y z
dump       1 all custom 70000 dump_t1.8_r${rho}.lammpstrj id type x y z
dump       1 all custom 70000 dump_t1.8_r0.86.lammpstrj id type x y z
thermo     2000
thermo_style  custom step press vol temp
thermo_modify flush yes

run 500000
Neighbor list info ...
  1 neighbor list requests
  update every 20 steps, delay 0 steps, check no
  max neighbors/atom: 2000, page size: 100000
  master list distance cutoff = 2.8
  ghost atom cutoff = 2.8
  binsize = 1.4 -> bins = 6 6 6
Memory usage per processor = 3.32155 Mbytes
Step Press Volume Temp 
       0   -4.6316267    581.39535          1.8 
    2000    2.1875422    581.39535   0.87725474 
    4000    2.3898624    581.39535   0.86484562 
    6000    2.3427932    581.39535   0.90599365 
    8000    2.7044268    581.39535   0.87740583 
   10000    2.4231151    581.39535   0.94436798 
   12000    2.7425944    581.39535   0.90764596 
   14000    2.7152497    581.39535   0.94678792 
   16000    2.7331208    581.39535   0.96820182 
   18000    2.5358848    581.39535    1.0185565 
   20000    2.6925361    581.39535    1.0184878 
   22000    2.9971324    581.39535    1.0035745 
   24000    3.1590788    581.39535    1.0191511 
   26000    3.4152274    581.39535    1.0160505 
   28000    3.2281948    581.39535     1.061857 
   30000    3.6246081    581.39535     1.039438 
   32000    3.0141162    581.39535     1.156156 
   34000    3.7913052    581.39535    1.0859898 
   36000    3.5095503    581.39535    1.1747636 
   38000    3.9033192    581.39535    1.1295364 
   40000    3.8341271    581.39535    1.1963333 
   42000    4.0919787    581.39535    1.1930193 
   44000    3.8933561    581.39535    1.2670192 
   46000    4.2343333    581.39535     1.243905 
   48000    4.3410015    581.39535     1.265757 
   50000     4.466706    581.39535    1.3013201 
   52000    4.5564477    581.39535    1.3170368 
   54000    4.5712372    581.39535    1.3458316 
   56000    5.0160172    581.39535    1.3137138 
   58000    4.8212057    581.39535    1.3908822 
   60000    5.1138234    581.39535    1.3814784 
   62000     5.204071    581.39535     1.440548 
   64000    5.0919602    581.39535    1.4729658 
   66000    5.6321628    581.39535    1.4333931 
   68000    5.3868101    581.39535    1.5138347 
   70000    5.6086167    581.39535    1.5098736 
   72000    5.9346824    581.39535    1.4975505 
   74000    5.8408204    581.39535    1.5558519 
   76000    5.8962185    581.39535    1.5750562 
   78000    5.9343328    581.39535    1.6046936 
   80000    6.1318463    581.39535    1.6058252 
   82000    6.5206166    581.39535    1.5837649 
   84000    6.4988011    581.39535    1.6297499 
   86000    6.3786212    581.39535    1.6916046 
   88000    5.9841526    581.39535    1.7789411 
   90000    6.7215922    581.39535    1.6857702 
   92000    6.6721874    581.39535    1.7198227 
   94000    6.7081888    581.39535    1.7564713 
   96000    6.8207017    581.39535    1.7550864 
   98000    7.2048999    581.39535    1.7104508 
  100000    7.3562942    581.39535    1.7319383 
  102000    7.6872542    581.39535    1.7000135 
  104000    7.4029062    581.39535     1.756865 
  106000    7.5233853    581.39535    1.7781725 
  108000    7.0229169    581.39535     1.857396 
  110000    7.2759643    581.39535    1.8497671 
  112000    7.2830948    581.39535    1.8478232 
  114000    7.4019034    581.39535    1.8409258 
  116000    7.0363529    581.39535    1.9160379 
  118000    7.3231939    581.39535    1.8627264 
  120000    7.4322781    581.39535    1.8554181 
  122000    7.4632732    581.39535    1.8754037 
  124000    7.4117767    581.39535    1.8768394 
  126000    7.3549456    581.39535    1.8776489 
  128000    7.5350749    581.39535     1.870504 
  130000    7.2488681    581.39535    1.9340937 
  132000    7.5311616    581.39535    1.8733412 
  134000    7.4002146    581.39535    1.8597683 
  136000    7.2483817    581.39535    1.8911103 
  138000    7.4386662    581.39535    1.8585627 
  140000    7.6518776    581.39535    1.8149976 
  142000    7.5897153    581.39535    1.8325452 
  144000    7.1366046    581.39535    1.8803052 
  146000    7.4487944    581.39535    1.8078896 
  148000    7.2717255    581.39535    1.8132847 
  150000    7.0954833    581.39535    1.8557351 
  152000    7.2120063    581.39535    1.8279928 
  154000    7.1185056    581.39535    1.7967676 
  156000    7.3872518    581.39535    1.7716426 
  158000    7.1610182    581.39535    1.7870519 
  160000    7.4084535    581.39535     1.755765 
  162000    7.0029033    581.39535    1.8007451 
  164000    6.8183859    581.39535     1.806454 
  166000    6.7070128    581.39535    1.8232054 
  168000    6.9015144    581.39535    1.7891336 
  170000    7.1025567    581.39535    1.7412997 
  172000    7.2075975    581.39535    1.7213157 
  174000    6.8843367    581.39535    1.7725235 
  176000    6.8868182    581.39535    1.7612797 
  178000    6.8342292    581.39535    1.7777504 
  180000     6.952939    581.39535    1.7513156 
  182000    6.8234293    581.39535    1.7676031 
  184000    6.6771226    581.39535     1.796815 
  186000    7.1351978    581.39535    1.7239785 
  188000     7.146499    581.39535    1.7288592 
  190000    7.2419062    581.39535    1.7096794 
  192000    6.6501749    581.39535     1.791566 
  194000    7.0853977    581.39535     1.742746 
  196000    6.7875761    581.39535    1.7830057 
  198000    6.9816976    581.39535    1.7625448 
  200000     7.198923    581.39535    1.7538634 
  202000    6.8526413    581.39535    1.8126771 
  204000    6.9398809    581.39535    1.8067049 
  206000    7.2841771    581.39535    1.7656232 
  208000    6.9318983    581.39535    1.8247173 
  210000    7.1421616    581.39535    1.7865454 
  212000    7.2568696    581.39535    1.7686671 
  214000    7.3604047    581.39535    1.7655407 
  216000    7.3748965    581.39535    1.7719204 
  218000    7.1400882    581.39535    1.8150114 
  220000    6.9406181    581.39535    1.8507443 
  222000     7.080953    581.39535    1.8233497 
  224000    7.4325969    581.39535     1.785532 
  226000     6.965908    581.39535    1.8589312 
  228000     7.128022    581.39535    1.8233455 
  230000    6.9584069    581.39535    1.8604102 
  232000    7.3347121    581.39535    1.8168475 
  234000    7.1044897    581.39535    1.8318811 
  236000    7.5509211    581.39535    1.7768344 
  238000    7.6267395    581.39535    1.7780207 
  240000    7.0228096    581.39535    1.8570443 
  242000    7.5792676    581.39535    1.7620463 
  244000    7.1477845    581.39535    1.8398458 
  246000    7.4202347    581.39535    1.8039493 
  248000    7.4407753    581.39535    1.7779328 
  250000    7.4331547    581.39535    1.7940681 
  252000    7.4807552    581.39535    1.7833594 
  254000    7.4645286    581.39535    1.7702964 
  256000    7.5760424    581.39535     1.765358 
  258000     7.275898    581.39535    1.8170014 
  260000    6.8988748    581.39535    1.8529487 
  262000    7.3615162    581.39535    1.7841906 
  264000    7.3728899    581.39535    1.7977269 
  266000    6.9845051    581.39535    1.8488846 
  268000    7.2099088    581.39535     1.793294 
  270000    7.5128295    581.39535    1.7336151 
  272000     7.283629    581.39535    1.7669905 
  274000    6.7166109    581.39535    1.8667882 
  276000    6.9246778    581.39535    1.8150176 
  278000    7.0748236    581.39535    1.7894258 
  280000    6.8708162    581.39535    1.8251212 
  282000    6.9815023    581.39535    1.8156898 
  284000    6.7301813    581.39535    1.8387712 
  286000    7.1602777    581.39535    1.7648143 
  288000    7.5130845    581.39535    1.7198966 
  290000    7.1564582    581.39535    1.7742492 
  292000    7.4988889    581.39535    1.7212084 
  294000    7.2334568    581.39535    1.7739839 
  296000    7.3693912    581.39535    1.7414327 
  298000    6.8410259    581.39535    1.8304632 
  300000    7.0742917    581.39535    1.7715748 
  302000    6.8334852    581.39535    1.8309315 
  304000    7.0505526    581.39535    1.8019358 
  306000    7.0514165    581.39535    1.7990461 
  308000    7.1898874    581.39535    1.8031166 
  310000    6.5054392    581.39535    1.8657719 
  312000    7.5390259    581.39535    1.7070525 
  314000    7.1159371    581.39535    1.7930061 
  316000    7.0813392    581.39535    1.7853285 
  318000    7.3799405    581.39535    1.7646241 
  320000    6.8872918    581.39535     1.839009 
  322000    6.6875412    581.39535    1.8756339 
  324000    7.1551625    581.39535    1.7992627 
  326000    7.5816535    581.39535    1.7522613 
  328000    7.3964647    581.39535    1.7611335 
  330000    6.8365973    581.39535    1.8581189 
  332000     6.863906    581.39535    1.8596297 
  334000    7.6410709    581.39535    1.7182869 
  336000     7.294045    581.39535    1.7794593 
  338000    7.2297851    581.39535    1.7966674 
  340000     6.980035    581.39535    1.8464599 
  342000     7.215302    581.39535    1.7963605 
  344000    6.8790536    581.39535    1.8630333 
  346000    7.2771055    581.39535    1.8045534 
  348000    7.4381439    581.39535     1.761997 
  350000    6.9634645    581.39535    1.8436589 
  352000    7.0685747    581.39535    1.8290842 
  354000    7.2207406    581.39535    1.8188419 
  356000    7.2520965    581.39535    1.7723563 
  358000    6.9155475    581.39535     1.845362 
  360000    7.2875348    581.39535    1.7871118 
  362000    6.9807835    581.39535    1.8461125 
  364000    7.0999346    581.39535    1.8076426 
  366000    7.4977444    581.39535    1.7472802 
  368000    7.0779532    581.39535    1.8039876 
  370000    7.2151644    581.39535    1.7867071 
  372000    7.0947993    581.39535    1.8099133 
  374000    7.2184904    581.39535      1.79589 
  376000    7.2271056    581.39535    1.7864314 
  378000    7.4529452    581.39535    1.7453762 
  380000    6.7295042    581.39535    1.8639882 
  382000    7.0277742    581.39535    1.8208724 
  384000    7.2289256    581.39535    1.7868208 
  386000    7.4580968    581.39535    1.7401014 
  388000    7.3013317    581.39535    1.7768095 
  390000    6.8473781    581.39535    1.8576326 
  392000    7.3488391    581.39535     1.759228 
  394000    7.4838137    581.39535    1.7324714 
  396000    7.3294991    581.39535    1.7643621 
  398000    7.4235489    581.39535    1.7718565 
  400000    7.0794416    581.39535    1.8108209 
  402000    7.2055374    581.39535     1.771245 
  404000    7.6839775    581.39535       1.7015 
  406000     6.690981    581.39535    1.8436239 
  408000    7.0905188    581.39535    1.8192445 
  410000     6.931978    581.39535     1.825647 
  412000    7.2545716    581.39535    1.7784945 
  414000    6.9208216    581.39535    1.8518504 
  416000    7.1605547    581.39535    1.7973963 
  418000     6.783336    581.39535    1.8411568 
  420000    7.0733572    581.39535    1.8037273 
  422000    7.2200458    581.39535    1.8055598 
  424000    7.1826037    581.39535    1.8059893 
  426000    6.6580481    581.39535    1.8735114 
  428000    7.0890211    581.39535    1.7995246 
  430000    7.2453902    581.39535    1.7833154 
  432000    6.9658873    581.39535    1.8212601 
  434000    7.1814501    581.39535    1.7702167 
  436000    7.6210734    581.39535    1.7045591 
  438000    7.1626892    581.39535    1.8038783 
  440000    6.7118295    581.39535    1.8680161 
  442000     6.907723    581.39535    1.8436099 
  444000     7.196672    581.39535    1.7769601 
  446000    7.2301069    581.39535    1.7944563 
  448000    7.2254085    581.39535    1.7961544 
  450000    7.0358003    581.39535    1.8018522 
  452000    6.9303186    581.39535    1.8346453 
  454000    6.7080262    581.39535    1.8574452 
  456000    6.8779739    581.39535    1.8469119 
  458000    7.5704892    581.39535     1.738924 
  460000    6.9182929    581.39535    1.8212677 
  462000    6.9218848    581.39535    1.8305487 
  464000     7.476901    581.39535    1.7412217 
  466000    7.4434299    581.39535    1.7546394 
  468000    6.7553623    581.39535    1.8623695 
  470000    7.0292411    581.39535    1.8097111 
  472000    7.4096767    581.39535    1.7430032 
  474000      7.60251    581.39535    1.7189216 
  476000    7.4262757    581.39535    1.7372396 
  478000    7.0606933    581.39535    1.8073106 
  480000    7.0143005    581.39535    1.8120578 
  482000    7.2674939    581.39535    1.7713769 
  484000    7.2420457    581.39535    1.7814643 
  486000    7.2470956    581.39535    1.7778352 
  488000    7.2657628    581.39535    1.7610073 
  490000    7.3668631    581.39535    1.7356416 
  492000    7.0039488    581.39535    1.7983066 
  494000    7.4143724    581.39535    1.7286204 
  496000    7.3781418    581.39535    1.7284979 
  498000    6.8505861    581.39535    1.8342341 
  500000    6.9143732    581.39535    1.8236938 
Loop time of 183.438 on 1 procs for 500000 steps with 500 atoms

Performance: 1177509.264 tau/day, 2725.716 timesteps/s
93.6% CPU use with 1 MPI tasks x no OpenMP threads

MPI task timing breakdown:
Section |  min time  |  avg time  |  max time  |%varavg| %total
---------------------------------------------------------------
Pair    | 148.66     | 148.66     | 148.66     |   0.0 | 81.04
Neigh   | 23.408     | 23.408     | 23.408     |   nan | 12.76
Comm    | 5.793      | 5.793      | 5.793      |   0.0 |  3.16
Output  | 0.019027   | 0.019027   | 0.019027   |   0.0 |  0.01
Modify  | 4.4557     | 4.4557     | 4.4557     |   0.0 |  2.43
Other   |            | 1.098      |            |       |  0.60

Nlocal:    500 ave 500 max 500 min
Histogram: 1 0 0 0 0 0 0 0 0 0
Nghost:    1817 ave 1817 max 1817 min
Histogram: 1 0 0 0 0 0 0 0 0 0
Neighs:    19342 ave 19342 max 19342 min
Histogram: 1 0 0 0 0 0 0 0 0 0

Total # of neighbors = 19342
Ave neighs/atom = 38.684
Neighbor list builds = 25000
Dangerous builds not checked
Total wall time: 0:03:03
