LAMMPS (19 Oct 2016)
# equation of state for LJ

variable temp equal 1.8
variable rho  equal 0.78

units lj
atom_style atomic

lattice    fcc ${rho}
lattice    fcc 0.78
Lattice spacing in x,y,z = 1.72447 1.72447 1.72447
region box block 0 5 0 5 0 5
create_box 1 box
Created orthogonal box = (0 0 0) to (8.62234 8.62234 8.62234)
  1 by 1 by 1 MPI processor grid
create_atoms 1 box
Created 500 atoms
mass       1 1.0

pair_style lj/cut 2.5
pair_coeff 1 1 1.0 1.0 2.5

velocity   all create ${temp} 87287
velocity   all create 1.8 87287

neighbor   0.3 bin
neigh_modify every 20 delay 0 check no

fix        1 all nvt temp ${temp} ${temp} 100
fix        1 all nvt temp 1.8 ${temp} 100
fix        1 all nvt temp 1.8 1.8 100
dump       1 all custom 70000 dump_t${temp}_r${rho}.lammpstrj id type x y z
dump       1 all custom 70000 dump_t1.8_r${rho}.lammpstrj id type x y z
dump       1 all custom 70000 dump_t1.8_r0.78.lammpstrj id type x y z
thermo     2000
thermo_style  custom step press vol temp
thermo_modify flush yes

run 500000
Neighbor list info ...
  1 neighbor list requests
  update every 20 steps, delay 0 steps, check no
  max neighbors/atom: 2000, page size: 100000
  master list distance cutoff = 2.8
  ghost atom cutoff = 2.8
  binsize = 1.4 -> bins = 7 7 7
Memory usage per processor = 3.32306 Mbytes
Step Press Volume Temp 
       0   -4.7174341    641.02564          1.8 
    2000    1.3544079    641.02564    1.0245307 
    4000    1.3720253    641.02564    1.0551133 
    6000    1.8385423    641.02564    1.0065727 
    8000    1.2735848    641.02564    1.1051898 
   10000    1.6018355    641.02564    1.1173456 
   12000    1.8788469    641.02564    1.0660906 
   14000    1.4613675    641.02564    1.1426979 
   16000    1.8645875    641.02564    1.1239711 
   18000    1.8784524    641.02564    1.1562284 
   20000    2.2024747    641.02564    1.1324901 
   22000    1.9885633    641.02564    1.1790014 
   24000    2.2662467    641.02564    1.1738431 
   26000    2.1461478    641.02564    1.2142081 
   28000    2.3444389    641.02564     1.216708 
   30000    2.4712979    641.02564    1.2315805 
   32000    2.4970334    641.02564    1.2730037 
   34000    2.6042222    641.02564    1.2675166 
   36000    2.7255864    641.02564    1.2965451 
   38000    2.8975941    641.02564    1.2864852 
   40000    2.9077518    641.02564    1.3152873 
   42000    2.9884624    641.02564    1.3385032 
   44000    3.1052913    641.02564    1.3555683 
   46000    2.8409222    641.02564    1.4386855 
   48000    3.3855455    641.02564    1.3757815 
   50000     2.811625    641.02564    1.5017818 
   52000    3.4009446    641.02564    1.4367574 
   54000    3.3430459    641.02564    1.4949137 
   56000    3.5910691    641.02564    1.4672993 
   58000    3.7471655    641.02564    1.5026704 
   60000    3.6658365    641.02564    1.5396046 
   62000    3.9079786    641.02564    1.5078937 
   64000    3.5610509    641.02564    1.6149461 
   66000    3.6639153    641.02564    1.6018808 
   68000    3.8966388    641.02564    1.6273561 
   70000    4.2495203    641.02564    1.5765282 
   72000    4.3405124    641.02564    1.6063688 
   74000    3.9841129    641.02564    1.7052828 
   76000    4.0028252    641.02564    1.7105993 
   78000    4.3806985    641.02564    1.6935171 
   80000    4.2222438    641.02564    1.7235025 
   82000    4.1251038    641.02564    1.7661718 
   84000    4.2745595    641.02564    1.7801785 
   86000    4.5392021    641.02564    1.7287894 
   88000    4.8030006    641.02564    1.7171029 
   90000    4.5598124    641.02564    1.7697134 
   92000    4.7308954    641.02564    1.7487418 
   94000     4.587873    641.02564    1.8064753 
   96000    4.6362147    641.02564    1.7753101 
   98000    5.0230867    641.02564    1.7467086 
  100000    4.7723479    641.02564    1.8053315 
  102000    4.5195659    641.02564    1.8420322 
  104000    4.4325404    641.02564    1.8783653 
  106000    4.6930051    641.02564    1.8323367 
  108000    4.8440487    641.02564    1.8315188 
  110000    4.8014002    641.02564    1.8414233 
  112000    4.6780867    641.02564    1.8500727 
  114000    5.2041724    641.02564    1.7453591 
  116000    5.0180428    641.02564    1.7790752 
  118000    4.7655889    641.02564    1.8153339 
  120000    4.4932985    641.02564    1.8889404 
  122000    4.7389469    641.02564    1.8230106 
  124000    5.5154689    641.02564    1.7052631 
  126000    4.5397293    641.02564    1.8702332 
  128000    4.8316601    641.02564    1.8138057 
  130000    4.5949661    641.02564    1.8313831 
  132000    4.7429505    641.02564    1.8228159 
  134000    4.4930784    641.02564     1.858965 
  136000    4.6857513    641.02564     1.814527 
  138000    4.5652796    641.02564    1.8114152 
  140000    4.8710388    641.02564    1.7610912 
  142000    4.7298193    641.02564    1.7762604 
  144000    4.5418249    641.02564    1.8153695 
  146000    4.6335251    641.02564    1.8059519 
  148000     4.644391    641.02564    1.7748794 
  150000    4.9292881    641.02564    1.7488145 
  152000     4.231836    641.02564     1.827769 
  154000    4.6372225    641.02564    1.7562162 
  156000    4.8313727    641.02564    1.7369571 
  158000    4.0357179    641.02564    1.8628269 
  160000    4.7112298    641.02564    1.7567892 
  162000    4.5717186    641.02564     1.772583 
  164000     4.515149    641.02564    1.7897158 
  166000    4.6486684    641.02564    1.7546696 
  168000    4.9201984    641.02564    1.7074845 
  170000    4.6308569    641.02564    1.7378874 
  172000    5.0964197    641.02564    1.6922687 
  174000    4.5934901    641.02564    1.7713443 
  176000    4.4701968    641.02564    1.7905138 
  178000    4.2711077    641.02564     1.810569 
  180000    4.7238942    641.02564    1.7586304 
  182000    4.6491981    641.02564    1.7556007 
  184000    4.4536159    641.02564    1.7938426 
  186000    4.5457986    641.02564    1.7887491 
  188000    4.4399253    641.02564    1.7897013 
  190000    4.3231115    641.02564    1.8245057 
  192000    4.2848208    641.02564    1.8318925 
  194000    4.5333105    641.02564     1.784284 
  196000    4.4626796    641.02564    1.7987052 
  198000    4.9211014    641.02564    1.7432763 
  200000    4.5045162    641.02564    1.8007428 
  202000    4.2544423    641.02564    1.8418522 
  204000    4.4914105    641.02564    1.8243589 
  206000    4.2789813    641.02564    1.8668724 
  208000    4.7247066    641.02564    1.7731442 
  210000    4.6631183    641.02564    1.7868034 
  212000    4.5028997    641.02564    1.8178933 
  214000    4.3554589    641.02564    1.8304491 
  216000    4.5348912    641.02564    1.8152865 
  218000    4.5873303    641.02564    1.8032676 
  220000    4.8464176    641.02564    1.7781139 
  222000    4.6961749    641.02564    1.8008098 
  224000    4.6488366    641.02564     1.793848 
  226000    4.7543491    641.02564    1.7663676 
  228000    4.7944756    641.02564     1.775369 
  230000    4.4331262    641.02564    1.8189447 
  232000    4.7662727    641.02564    1.7794101 
  234000    4.4462419    641.02564    1.8133133 
  236000    4.3920393    641.02564    1.8417786 
  238000    4.4080245    641.02564    1.8359558 
  240000    4.9641875    641.02564    1.7564908 
  242000    4.4770633    641.02564    1.8608475 
  244000    4.4593928    641.02564    1.8253599 
  246000    4.6944569    641.02564    1.7792647 
  248000    4.5649539    641.02564    1.8164083 
  250000    4.7383978    641.02564    1.7739803 
  252000    4.4609666    641.02564    1.8072798 
  254000    4.7947953    641.02564    1.7626262 
  256000    4.6710026    641.02564    1.7808311 
  258000    4.5949241    641.02564    1.7851625 
  260000     4.207988    641.02564    1.8470837 
  262000    4.5887502    641.02564    1.7741054 
  264000    4.9290099    641.02564     1.732355 
  266000    4.8765469    641.02564    1.7495127 
  268000    4.7979336    641.02564    1.7725613 
  270000    5.0088556    641.02564    1.7291172 
  272000    4.6424314    641.02564    1.7874145 
  274000     4.502526    641.02564    1.7758346 
  276000    4.5999226    641.02564    1.7864321 
  278000     4.555511    641.02564    1.7819779 
  280000    4.5494218    641.02564    1.8093942 
  282000    4.9945417    641.02564    1.7259718 
  284000    4.8589786    641.02564    1.7279095 
  286000    4.5184612    641.02564    1.8019105 
  288000    4.4935345    641.02564    1.8030824 
  290000    4.6937868    641.02564    1.7607246 
  292000    4.2892397    641.02564    1.8440197 
  294000     4.615469    641.02564    1.7833797 
  296000     4.627403    641.02564    1.7738407 
  298000    4.5644673    641.02564    1.7819383 
  300000    4.6312113    641.02564    1.7646619 
  302000     4.621922    641.02564    1.7834571 
  304000    4.8645394    641.02564    1.7442481 
  306000    4.7610281    641.02564    1.7595622 
  308000    4.6203313    641.02564    1.8107551 
  310000    4.4997422    641.02564     1.815963 
  312000    4.8138759    641.02564    1.7610298 
  314000    4.9705317    641.02564    1.7331938 
  316000    4.2823907    641.02564    1.8540134 
  318000    4.6323419    641.02564    1.7915855 
  320000    4.8083624    641.02564    1.7352642 
  322000    4.7698298    641.02564     1.749826 
  324000     4.678143    641.02564    1.7788781 
  326000    4.7989192    641.02564    1.7527123 
  328000    4.9011996    641.02564    1.7238689 
  330000    4.5409337    641.02564    1.7883506 
  332000    4.8629724    641.02564    1.7093031 
  334000    4.6159978    641.02564    1.7830363 
  336000    4.2892719    641.02564    1.8230259 
  338000     4.911577    641.02564    1.7434644 
  340000    4.7153915    641.02564    1.7696492 
  342000    4.7598077    641.02564    1.7577289 
  344000    4.8923005    641.02564    1.7293238 
  346000    4.5918209    641.02564    1.7955461 
  348000    4.4611868    641.02564    1.7825187 
  350000    4.9018867    641.02564    1.7488105 
  352000    4.8352157    641.02564     1.741013 
  354000    4.4262072    641.02564    1.7986801 
  356000    4.6798624    641.02564    1.7504871 
  358000    4.2901885    641.02564     1.830879 
  360000    4.9761343    641.02564    1.7032197 
  362000    4.5939676    641.02564    1.7716894 
  364000    4.3365791    641.02564    1.8109795 
  366000    4.3411843    641.02564    1.8043029 
  368000    4.3535345    641.02564    1.8041881 
  370000    4.7551534    641.02564    1.7291303 
  372000    4.8173838    641.02564    1.7099073 
  374000    4.4827825    641.02564     1.781262 
  376000    4.4029274    641.02564    1.7933723 
  378000    4.3004013    641.02564    1.8167419 
  380000     4.467085    641.02564     1.793666 
  382000    4.5598206    641.02564    1.7453203 
  384000    4.4091565    641.02564      1.81077 
  386000      4.54613    641.02564    1.7606655 
  388000     4.208472    641.02564    1.8347496 
  390000    4.6672669    641.02564    1.7452596 
  392000    4.3632771    641.02564    1.7906913 
  394000    4.4922689    641.02564    1.7731239 
  396000    4.3771673    641.02564    1.7941035 
  398000    4.4909688    641.02564    1.7667844 
  400000    4.5324657    641.02564    1.7763186 
  402000    4.8160491    641.02564    1.7055382 
  404000    4.3496529    641.02564    1.7799114 
  406000    4.5191287    641.02564    1.7678214 
  408000    4.3827756    641.02564     1.776524 
  410000    4.6316502    641.02564    1.7147118 
  412000     4.574665    641.02564    1.7214544 
  414000    4.4907705    641.02564    1.7433438 
  416000    4.5816796    641.02564     1.737551 
  418000     4.469875    641.02564    1.7664381 
  420000    4.4067706    641.02564    1.7577067 
  422000    4.2666767    641.02564    1.7735851 
  424000    5.0964061    641.02564    1.6290372 
  426000    4.3520551    641.02564    1.7728402 
  428000    4.1840759    641.02564    1.7777624 
  430000    4.2209495    641.02564    1.8053844 
  432000    4.3829709    641.02564    1.7364256 
  434000    4.2835073    641.02564    1.7605196 
  436000    4.3041636    641.02564    1.7691343 
  438000    4.3628727    641.02564    1.7388144 
  440000    4.8925704    641.02564    1.6961236 
  442000    4.3991449    641.02564    1.7318783 
  444000    4.2323401    641.02564    1.7822607 
  446000    4.4534746    641.02564    1.7279634 
  448000    4.3087244    641.02564    1.7350789 
  450000    4.2903064    641.02564    1.7281436 
  452000    4.6749753    641.02564     1.684768 
  454000    4.4788128    641.02564    1.7178377 
  456000    4.1886684    641.02564    1.7703938 
  458000    4.6154353    641.02564    1.6924657 
  460000    4.6007882    641.02564    1.7047527 
  462000    4.4000724    641.02564    1.7286459 
  464000    4.0276849    641.02564    1.7822052 
  466000    4.2216486    641.02564    1.7608813 
  468000    4.3984396    641.02564    1.7002795 
  470000    4.5630206    641.02564    1.7023827 
  472000     4.480776    641.02564    1.7315818 
  474000    4.7180322    641.02564    1.6603838 
  476000    4.5639641    641.02564     1.708323 
  478000    4.1298755    641.02564    1.7561825 
  480000    4.0092447    641.02564    1.7733575 
  482000    4.5188167    641.02564     1.693474 
  484000    4.4769602    641.02564     1.713401 
  486000    4.3081686    641.02564    1.7533926 
  488000    4.2497371    641.02564    1.7687916 
  490000     4.689441    641.02564    1.6777503 
  492000     4.379743    641.02564    1.7375498 
  494000    4.3071842    641.02564    1.7435741 
  496000    5.0156545    641.02564    1.6024431 
  498000    4.3197215    641.02564     1.755292 
  500000    4.2983447    641.02564    1.7549774 
Loop time of 153.468 on 1 procs for 500000 steps with 500 atoms

Performance: 1407461.808 tau/day, 3258.013 timesteps/s
96.7% CPU use with 1 MPI tasks x no OpenMP threads

MPI task timing breakdown:
Section |  min time  |  avg time  |  max time  |%varavg| %total
---------------------------------------------------------------
Pair    | 124.89     | 124.89     | 124.89     |   0.0 | 81.38
Neigh   | 18.458     | 18.458     | 18.458     |   0.0 | 12.03
Comm    | 5.1339     | 5.1339     | 5.1339     |   0.0 |  3.35
Output  | 0.028398   | 0.028398   | 0.028398   |   0.0 |  0.02
Modify  | 3.9982     | 3.9982     | 3.9982     |   0.0 |  2.61
Other   |            | 0.9617     |            |       |  0.63

Nlocal:    500 ave 500 max 500 min
Histogram: 1 0 0 0 0 0 0 0 0 0
Nghost:    1751 ave 1751 max 1751 min
Histogram: 1 0 0 0 0 0 0 0 0 0
Neighs:    17583 ave 17583 max 17583 min
Histogram: 1 0 0 0 0 0 0 0 0 0

Total # of neighbors = 17583
Ave neighs/atom = 35.166
Neighbor list builds = 25000
Dangerous builds not checked
Total wall time: 0:02:33
