LAMMPS (19 Oct 2016)
# equation of state for LJ

variable temp equal 1.8
variable rho  equal 1.0

units lj
atom_style atomic

lattice    fcc ${rho}
lattice    fcc 1
Lattice spacing in x,y,z = 1.5874 1.5874 1.5874
region box block 0 5 0 5 0 5
create_box 1 box
Created orthogonal box = (0 0 0) to (7.93701 7.93701 7.93701)
  1 by 1 by 1 MPI processor grid
create_atoms 1 box
Created 500 atoms
mass       1 1.0

pair_style lj/cut 2.5
pair_coeff 1 1 1.0 1.0 2.5

velocity   all create ${temp} 87287
velocity   all create 1.8 87287

neighbor   0.3 bin
neigh_modify every 20 delay 0 check no

fix        1 all nvt temp ${temp} ${temp} 100
fix        1 all nvt temp 1.8 ${temp} 100
fix        1 all nvt temp 1.8 1.8 100
dump       1 all custom 70000 dump_t${temp}_r${rho}.lammpstrj id type x y z
dump       1 all custom 70000 dump_t1.8_r${rho}.lammpstrj id type x y z
dump       1 all custom 70000 dump_t1.8_r1.lammpstrj id type x y z
thermo     2000
thermo_style  custom step press vol temp
thermo_modify flush yes

run 500000
Neighbor list info ...
  1 neighbor list requests
  update every 20 steps, delay 0 steps, check no
  max neighbors/atom: 2000, page size: 100000
  master list distance cutoff = 2.8
  ghost atom cutoff = 2.8
  binsize = 1.4 -> bins = 6 6 6
Memory usage per processor = 3.32155 Mbytes
Step Press Volume Temp 
       0   -1.5971748          500          1.8 
    2000    4.2017615          500    0.9882269 
    4000    4.5928157          500   0.94915913 
    6000    4.4243747          500   0.98813128 
    8000     4.521521          500   0.99878653 
   10000    4.9573181          500   0.96740567 
   12000    5.0916166          500   0.97952727 
   14000     4.943814          500     1.013202 
   16000    4.9085312          500    1.0433644 
   18000    4.8696619          500    1.0851082 
   20000    5.2682594          500    1.0463923 
   22000    5.5133891          500     1.048776 
   24000    5.8385825          500    1.0340486 
   26000    5.1641132          500     1.166101 
   28000    5.2003409          500    1.2015501 
   30000    5.6958227          500    1.1558569 
   32000    6.0910262          500    1.1363696 
   34000    5.7106727          500    1.2306122 
   36000    5.9614524          500    1.2362214 
   38000     6.453827          500     1.194025 
   40000    6.3077912          500    1.2625258 
   42000     6.651825          500    1.2515259 
   44000    6.9446316          500    1.2439971 
   46000    6.8246524          500    1.3000977 
   48000    6.9839249          500    1.3204429 
   50000    7.0796651          500    1.3450235 
   52000    7.1821496          500    1.3718532 
   54000    7.0781743          500    1.4235961 
   56000    7.7116043          500    1.3869629 
   58000    8.2131797          500    1.3546601 
   60000    7.8872284          500    1.4289441 
   62000    8.5317307          500     1.372277 
   64000     8.415743          500    1.4384191 
   66000    8.2452589          500    1.4977234 
   68000    7.8301927          500    1.6079689 
   70000    8.4984299          500    1.5421438 
   72000    8.8536117          500    1.5308921 
   74000    8.4246203          500    1.6311262 
   76000    9.6972832          500    1.4928289 
   78000    9.1781659          500    1.5998562 
   80000    9.3729196          500    1.6200866 
   82000    9.6586663          500    1.5969218 
   84000    10.118601          500     1.562906 
   86000    10.093963          500    1.6093881 
   88000    10.076766          500    1.6466148 
   90000    9.7733094          500    1.7292788 
   92000    10.465529          500    1.6589232 
   94000    11.057342          500    1.6115634 
   96000    10.773426          500    1.6766799 
   98000    10.429789          500    1.7524386 
  100000    10.767102          500    1.7415715 
  102000    10.780721          500    1.7599766 
  104000    10.577923          500    1.8165049 
  106000    10.780546          500    1.8143739 
  108000    10.894954          500    1.8214639 
  110000    10.906943          500     1.834092 
  112000    13.183224          500    1.5353721 
  114000    13.724207          500    1.4861264 
  116000    13.514992          500    1.5426413 
  118000    13.181017          500    1.6270992 
  120000    13.457009          500    1.6156739 
  122000    13.917885          500    1.5759584 
  124000    13.446129          500    1.6905415 
  126000    13.911939          500    1.6334191 
  128000    13.974082          500    1.6615683 
  130000    14.021395          500    1.6870145 
  132000    14.149203          500    1.7087089 
  134000     14.86722          500    1.6245453 
  136000    14.374146          500    1.7400337 
  138000    14.605369          500    1.7400333 
  140000    13.800888          500     1.870466 
  142000    14.357309          500    1.8073331 
  144000    15.235346          500    1.7181671 
  146000    14.842482          500    1.7847819 
  148000    14.623148          500    1.8464606 
  150000    14.556833          500     1.878387 
  152000    15.196982          500    1.8026376 
  154000    15.210915          500    1.8047397 
  156000    15.159879          500    1.8452969 
  158000    15.078109          500    1.8431655 
  160000    15.019524          500    1.9108835 
  162000    15.374703          500    1.8431987 
  164000    15.167957          500    1.8969493 
  166000    15.565093          500    1.8325038 
  168000    15.458929          500    1.8492578 
  170000    15.413305          500    1.8672467 
  172000    15.468341          500    1.8566037 
  174000     15.43374          500    1.8680887 
  176000     15.12005          500    1.9012943 
  178000    15.268905          500    1.8804664 
  180000    15.467599          500    1.8605806 
  182000     15.60888          500    1.8198368 
  184000    15.643141          500    1.8101025 
  186000    15.156563          500    1.8751539 
  188000     16.17725          500    1.7067981 
  190000     15.70583          500    1.7724167 
  192000    14.772772          500    1.9116299 
  194000    14.787909          500    1.8815367 
  196000    14.839903          500    1.8494618 
  198000    15.237314          500    1.7937371 
  200000    15.117869          500    1.7936122 
  202000    14.970322          500    1.8092858 
  204000    14.726018          500    1.8238959 
  206000    15.239195          500    1.7405701 
  208000    15.478308          500    1.6813198 
  210000    14.816185          500    1.7707403 
  212000    14.352708          500    1.8316719 
  214000    14.640003          500    1.7869906 
  216000    15.029441          500     1.701553 
  218000    14.630725          500    1.7571574 
  220000    14.875033          500    1.7256151 
  222000    14.758043          500    1.7215061 
  224000    14.721901          500    1.7089487 
  226000    14.552159          500    1.7312338 
  228000    14.682527          500    1.7249334 
  230000    14.536022          500     1.724574 
  232000    14.413449          500    1.7316965 
  234000    14.123159          500     1.787476 
  236000    13.955943          500    1.8182959 
  238000    14.562039          500    1.7307224 
  240000    14.289759          500    1.7740504 
  242000    14.135128          500    1.7976909 
  244000    14.501414          500    1.7542073 
  246000    14.523275          500    1.7569399 
  248000    14.466557          500    1.7711901 
  250000    14.742009          500    1.7369309 
  252000    14.542465          500    1.7838268 
  254000    15.224077          500    1.6934587 
  256000    14.366324          500    1.8137263 
  258000    14.692532          500    1.7886242 
  260000    14.517191          500    1.8094383 
  262000    14.674488          500    1.8124533 
  264000    15.262025          500    1.7337846 
  266000     14.34492          500    1.8868748 
  268000    15.248959          500    1.7465214 
  270000    14.992255          500    1.8023815 
  272000     15.29815          500    1.7561098 
  274000    14.635122          500    1.8682247 
  276000    14.892676          500    1.8349846 
  278000    14.857168          500    1.8604373 
  280000    15.153664          500    1.8071311 
  282000    15.106033          500    1.8342244 
  284000    15.487534          500    1.7749422 
  286000    14.947268          500    1.8373489 
  288000    14.891872          500    1.8594842 
  290000    15.367823          500    1.8038031 
  292000    15.160008          500    1.8290661 
  294000    14.903617          500    1.8698039 
  296000    14.911357          500    1.8717556 
  298000    15.170311          500    1.8317517 
  300000    14.979934          500    1.8496708 
  302000    15.202262          500    1.8283442 
  304000    15.027818          500    1.8538463 
  306000    14.920318          500     1.854359 
  308000    15.299316          500    1.7908157 
  310000    15.188765          500    1.7857696 
  312000    15.130552          500    1.8170382 
  314000    15.308534          500    1.7698272 
  316000    14.676475          500    1.8669751 
  318000    14.494302          500    1.8794421 
  320000    15.353136          500      1.74266 
  322000    15.055255          500    1.7825268 
  324000    14.745315          500    1.8136534 
  326000    15.026035          500    1.7664062 
  328000    14.968853          500    1.7628228 
  330000    15.193844          500    1.7233742 
  332000     14.90654          500    1.7606336 
  334000    14.669459          500    1.8099308 
  336000    15.053304          500    1.7480265 
  338000    14.507743          500    1.8186622 
  340000    15.095421          500     1.718859 
  342000    14.754728          500    1.7837063 
  344000    14.411222          500    1.8272837 
  346000    13.992434          500    1.8824729 
  348000    14.779369          500    1.7850211 
  350000    14.980994          500     1.740528 
  352000    15.199389          500    1.6909388 
  354000    14.455842          500    1.8062148 
  356000    14.772327          500    1.7723995 
  358000    14.769913          500    1.7655247 
  360000    14.546842          500    1.8008845 
  362000    14.726056          500    1.7761672 
  364000    14.950797          500    1.7550844 
  366000    14.971384          500    1.7531331 
  368000     15.33908          500    1.6898166 
  370000    15.129607          500    1.7356327 
  372000    14.615291          500    1.8255145 
  374000    15.255659          500    1.7325494 
  376000    15.071339          500    1.7578132 
  378000    15.099732          500    1.7526517 
  380000    14.839338          500     1.811518 
  382000    15.311148          500    1.7479497 
  384000    15.049998          500    1.7661855 
  386000    14.816043          500    1.8103702 
  388000     15.03722          500    1.8070946 
  390000    14.565659          500    1.8590554 
  392000    15.377594          500    1.7582914 
  394000    14.996431          500    1.8085684 
  396000       15.265          500    1.7646519 
  398000    15.251633          500    1.7791042 
  400000    15.197523          500    1.7956447 
  402000    15.145591          500     1.794344 
  404000    15.256859          500    1.7723144 
  406000    14.757807          500    1.8702858 
  408000    15.575146          500    1.7512568 
  410000    14.799433          500    1.8533798 
  412000    15.003158          500     1.819539 
  414000    14.917329          500    1.8342832 
  416000    14.658129          500    1.8786101 
  418000    15.236571          500    1.7841645 
  420000    15.005807          500    1.8213052 
  422000    14.660493          500     1.867132 
  424000    15.021613          500    1.8095779 
  426000    15.217762          500    1.7828208 
  428000    15.009875          500     1.797981 
  430000    14.821432          500     1.835159 
  432000    14.889217          500    1.8225203 
  434000    14.253046          500    1.9196605 
  436000    14.802395          500    1.8344964 
  438000    14.877995          500    1.8173281 
  440000     14.70666          500    1.8438548 
  442000    14.751936          500    1.8376403 
  444000    14.736905          500    1.8361976 
  446000      14.4577          500    1.8644172 
  448000    14.958079          500    1.7971472 
  450000    14.978432          500    1.7765508 
  452000    14.300242          500     1.879465 
  454000    14.766259          500    1.8214571 
  456000    15.264643          500    1.7417442 
  458000    15.098296          500    1.7534622 
  460000     14.55719          500    1.8495022 
  462000     14.97827          500    1.7858774 
  464000    14.827194          500    1.7988968 
  466000    14.889257          500    1.7939033 
  468000    14.409729          500    1.8665067 
  470000    14.687191          500    1.8293554 
  472000    15.126976          500    1.7644245 
  474000    14.916498          500    1.7889466 
  476000    15.193232          500    1.7431271 
  478000    15.339547          500    1.7450898 
  480000    15.153384          500    1.7616185 
  482000     15.15321          500    1.7595713 
  484000    14.263697          500    1.9105748 
  486000    14.998346          500    1.7959393 
  488000    14.825265          500    1.8275615 
  490000    15.111241          500    1.7803211 
  492000    14.598555          500    1.8744814 
  494000    15.114098          500    1.7954018 
  496000    14.754922          500    1.8507809 
  498000    15.157832          500    1.7815822 
  500000    14.706569          500    1.8519851 
Loop time of 195.341 on 1 procs for 500000 steps with 500 atoms

Performance: 1105756.377 tau/day, 2559.621 timesteps/s
95.3% CPU use with 1 MPI tasks x no OpenMP threads

MPI task timing breakdown:
Section |  min time  |  avg time  |  max time  |%varavg| %total
---------------------------------------------------------------
Pair    | 159.99     | 159.99     | 159.99     |   0.0 | 81.90
Neigh   | 24.267     | 24.267     | 24.267     |   0.0 | 12.42
Comm    | 5.7878     | 5.7878     | 5.7878     |   0.0 |  2.96
Output  | 0.033277   | 0.033277   | 0.033277   |   0.0 |  0.02
Modify  | 4.1722     | 4.1722     | 4.1722     |   0.0 |  2.14
Other   |            | 1.089      |            |       |  0.56

Nlocal:    500 ave 500 max 500 min
Histogram: 1 0 0 0 0 0 0 0 0 0
Nghost:    1972 ave 1972 max 1972 min
Histogram: 1 0 0 0 0 0 0 0 0 0
Neighs:    22555 ave 22555 max 22555 min
Histogram: 1 0 0 0 0 0 0 0 0 0

Total # of neighbors = 22555
Ave neighs/atom = 45.11
Neighbor list builds = 25000
Dangerous builds not checked
Total wall time: 0:03:15
