LAMMPS (19 Oct 2016)
# equation of state for LJ

variable temp equal 1.8
variable rho  equal 1.11

units lj
atom_style atomic

lattice    fcc ${rho}
lattice    fcc 1.11
Lattice spacing in x,y,z = 1.53313 1.53313 1.53313
region box block 0 5 0 5 0 5
create_box 1 box
Created orthogonal box = (0 0 0) to (7.66565 7.66565 7.66565)
  1 by 1 by 1 MPI processor grid
create_atoms 1 box
Created 500 atoms
mass       1 1.0

pair_style lj/cut 2.5
pair_coeff 1 1 1.0 1.0 2.5

velocity   all create ${temp} 87287
velocity   all create 1.8 87287

neighbor   0.3 bin
neigh_modify every 20 delay 0 check no

fix        1 all nvt temp ${temp} ${temp} 100
fix        1 all nvt temp 1.8 ${temp} 100
fix        1 all nvt temp 1.8 1.8 100
dump       1 all custom 70000 dump_t${temp}_r${rho}.lammpstrj id type x y z
dump       1 all custom 70000 dump_t1.8_r${rho}.lammpstrj id type x y z
dump       1 all custom 70000 dump_t1.8_r1.11.lammpstrj id type x y z
thermo     2000
thermo_style  custom step press vol temp
thermo_modify flush yes

run 500000
Neighbor list info ...
  1 neighbor list requests
  update every 20 steps, delay 0 steps, check no
  max neighbors/atom: 2000, page size: 100000
  master list distance cutoff = 2.8
  ghost atom cutoff = 2.8
  binsize = 1.4 -> bins = 6 6 6
Memory usage per processor = 3.32155 Mbytes
Step Press Volume Temp 
       0    4.5333819    450.45045          1.8 
    2000    10.642729    450.45045   0.98541215 
    4000    11.035524    450.45045   0.94998368 
    6000    11.137526    450.45045   0.96173277 
    8000    11.395561    450.45045   0.95243584 
   10000    11.358056    450.45045   0.98361784 
   12000    11.452842    450.45045   0.99646559 
   14000    11.731037    450.45045   0.97604264 
   16000    11.820442    450.45045   0.99506411 
   18000    11.755518    450.45045    1.0309667 
   20000    12.022584    450.45045    1.0262427 
   22000    11.762539    450.45045    1.0899343 
   24000    12.306556    450.45045    1.0529747 
   26000    12.543086    450.45045    1.0557141 
   28000    12.399445    450.45045    1.1109362 
   30000     12.24546    450.45045    1.1679135 
   32000    13.020049    450.45045    1.1007425 
   34000    12.845671    450.45045    1.1642505 
   36000    12.842911    450.45045    1.2022405 
   38000    13.383685    450.45045    1.1708446 
   40000    13.431065    450.45045    1.2000556 
   42000    13.771043    450.45045    1.2014444 
   44000    13.704077    450.45045    1.2497274 
   46000    13.435705    450.45045    1.3251384 
   48000    13.779606    450.45045    1.3210715 
   50000    14.043061    450.45045    1.3322493 
   52000     14.42155    450.45045    1.3194952 
   54000    14.550244    450.45045    1.3503918 
   56000     14.94308    450.45045    1.3371288 
   58000    14.706496    450.45045    1.4146716 
   60000    14.782358    450.45045    1.4475346 
   62000    15.315989    450.45045    1.4130738 
   64000    15.313257    450.45045    1.4633542 
   66000     15.53255    450.45045    1.4784866 
   68000    15.787498    450.45045    1.4904265 
   70000    16.198981    450.45045     1.474599 
   72000    16.251032    450.45045    1.5044675 
   74000    15.818452    450.45045    1.6055908 
   76000    16.203017    450.45045     1.598438 
   78000    16.289006    450.45045     1.627853 
   80000     16.83155    450.45045    1.5920765 
   82000    17.129681    450.45045    1.5959637 
   84000    17.279813    450.45045    1.6110895 
   86000     16.99672    450.45045    1.6899638 
   88000    17.366449    450.45045    1.6771279 
   90000    16.968081    450.45045    1.7807767 
   92000    17.516499    450.45045    1.7368203 
   94000    17.311429    450.45045    1.8071821 
   96000    17.675216    450.45045    1.7870139 
   98000    17.624342    450.45045    1.8220155 
  100000    18.274159    450.45045    1.7625764 
  102000    17.939503    450.45045    1.8398826 
  104000    18.778115    450.45045    1.7594118 
  106000    18.231223    450.45045    1.8523022 
  108000     19.02211    450.45045    1.7783631 
  110000    18.190384    450.45045    1.9069569 
  112000    19.037829    450.45045    1.8112894 
  114000    18.299715    450.45045    1.9374421 
  116000    19.013297    450.45045    1.8475875 
  118000    18.672076    450.45045    1.9103627 
  120000    19.034915    450.45045    1.8786883 
  122000    18.833467    450.45045    1.9155585 
  124000    18.721632    450.45045    1.9348397 
  126000    19.033513    450.45045    1.9045692 
  128000    18.848093    450.45045    1.9287206 
  130000    18.986228    450.45045    1.9113251 
  132000     19.14957    450.45045    1.8806995 
  134000    19.110451    450.45045    1.8878218 
  136000    19.552695    450.45045    1.8109898 
  138000    18.482691    450.45045    1.9591951 
  140000     18.81944    450.45045    1.8995435 
  142000    19.139263    450.45045    1.8419096 
  144000    18.056653    450.45045     1.981008 
  146000    18.633954    450.45045    1.8843922 
  148000    18.279917    450.45045    1.9126555 
  150000     18.67546    450.45045     1.835183 
  152000    18.547517    450.45045    1.8355614 
  154000    19.238423    450.45045    1.7213336 
  156000    18.407854    450.45045    1.8087655 
  158000    18.465168    450.45045    1.7881806 
  160000    18.665759    450.45045     1.734818 
  162000    18.456985    450.45045    1.7409109 
  164000    17.693555    450.45045    1.8306597 
  166000    18.221483    450.45045    1.7358257 
  168000    17.723772    450.45045    1.7897913 
  170000    17.959608    450.45045    1.7357867 
  172000    18.276459    450.45045    1.6775245 
  174000    16.957652    450.45045    1.8544473 
  176000    17.755438    450.45045    1.7206847 
  178000    17.742139    450.45045    1.7164151 
  180000    17.636758    450.45045    1.7132294 
  182000    17.534119    450.45045    1.7187737 
  184000    18.077221    450.45045    1.6437798 
  186000    17.327545    450.45045    1.7361579 
  188000    17.597372    450.45045    1.6994287 
  190000     17.58438    450.45045    1.7088298 
  192000    17.361613    450.45045    1.7252788 
  194000    17.507194    450.45045    1.7165831 
  196000    17.494768    450.45045    1.7174705 
  198000    17.567176    450.45045    1.7135518 
  200000    17.962672    450.45045    1.6750698 
  202000     17.46292    450.45045     1.749244 
  204000    18.001075    450.45045    1.6901879 
  206000    18.055303    450.45045    1.6881532 
  208000    18.233334    450.45045    1.6839938 
  210000    17.721841    450.45045     1.776121 
  212000    18.213476    450.45045    1.7129736 
  214000    18.251235    450.45045    1.7240288 
  216000    18.331649    450.45045    1.7278507 
  218000     17.99887    450.45045    1.7927335 
  220000    18.026651    450.45045    1.8080097 
  222000    18.335679    450.45045      1.77664 
  224000    17.870191    450.45045    1.8607076 
  226000    18.423775    450.45045    1.7998173 
  228000    19.254134    450.45045    1.7033748 
  230000    18.380724    450.45045    1.8336916 
  232000    18.391117    450.45045    1.8518019 
  234000    18.434601    450.45045    1.8518917 
  236000    18.684671    450.45045    1.8289566 
  238000    18.163534    450.45045    1.9078659 
  240000    18.622274    450.45045    1.8524188 
  242000    18.692489    450.45045    1.8472027 
  244000    18.486289    450.45045    1.8892891 
  246000    18.305339    450.45045    1.9187968 
  248000    19.179172    450.45045    1.8012808 
  250000    18.733413    450.45045     1.866831 
  252000    19.162148    450.45045    1.8042158 
  254000    18.784821    450.45045     1.857224 
  256000    19.255673    450.45045    1.7912722 
  258000     18.32577    450.45045    1.9097182 
  260000    18.504127    450.45045    1.8733508 
  262000    18.550974    450.45045    1.8667015 
  264000    18.371116    450.45045    1.8826229 
  266000    18.533903    450.45045    1.8523442 
  268000    18.740998    450.45045    1.8171065 
  270000    18.920679    450.45045    1.7781482 
  272000    18.526633    450.45045    1.8095774 
  274000    18.653934    450.45045    1.7825704 
  276000    18.730954    450.45045    1.7644392 
  278000    17.811465    450.45045    1.8781616 
  280000    17.968005    450.45045    1.8448191 
  282000    18.004603    450.45045    1.8289864 
  284000    18.307792    450.45045    1.7763249 
  286000    19.009773    450.45045    1.6666949 
  288000    17.786711    450.45045    1.8128097 
  290000    18.074149    450.45045    1.7589212 
  292000    18.104921    450.45045    1.7480703 
  294000    18.164713    450.45045    1.7306943 
  296000    18.013075    450.45045    1.7327224 
  298000    17.915007    450.45045    1.7462396 
  300000    17.356248    450.45045     1.813597 
  302000    18.334289    450.45045    1.6671332 
  304000    17.710029    450.45045    1.7530153 
  306000    17.375521    450.45045    1.7958062 
  308000    17.237146    450.45045    1.8080695 
  310000     17.87687    450.45045    1.7238056 
  312000    17.432986    450.45045    1.7791317 
  314000    17.433681    450.45045     1.773336 
  316000    17.912548    450.45045    1.7111172 
  318000     17.78485    450.45045    1.7351459 
  320000    17.660261    450.45045    1.7589382 
  322000    17.699112    450.45045    1.7556524 
  324000    17.945949    450.45045    1.7312709 
  326000    18.151479    450.45045      1.72033 
  328000    18.002878    450.45045    1.7439457 
  330000    17.719153    450.45045     1.805054 
  332000     18.05299    450.45045    1.7599271 
  334000    17.856086    450.45045    1.7989649 
  336000    18.040376    450.45045    1.7866539 
  338000    18.036525    450.45045    1.7954791 
  340000    18.035174    450.45045     1.807866 
  342000    18.813499    450.45045    1.7215907 
  344000     17.92288    450.45045    1.8506255 
  346000    18.278097    450.45045    1.8093437 
  348000    18.364661    450.45045    1.8072529 
  350000    18.230045    450.45045    1.8283779 
  352000    17.695256    450.45045    1.9222384 
  354000    18.226672    450.45045    1.8584027 
  356000    18.921631    450.45045    1.7687303 
  358000    18.875939    450.45045    1.7737446 
  360000    18.890446    450.45045    1.7891862 
  362000    18.385893    450.45045    1.8581152 
  364000    18.204753    450.45045     1.890985 
  366000    18.609938    450.45045    1.8345358 
  368000    18.331177    450.45045    1.8744437 
  370000    18.901101    450.45045    1.7982343 
  372000    18.470934    450.45045    1.8578688 
  374000    18.223329    450.45045    1.8934561 
  376000     18.44953    450.45045    1.8626654 
  378000    18.162272    450.45045     1.906587 
  380000    18.759653    450.45045     1.811871 
  382000    19.025481    450.45045    1.7764549 
  384000    18.556237    450.45045    1.8337236 
  386000    18.942293    450.45045    1.7677455 
  388000    18.526529    450.45045    1.8283117 
  390000    18.590347    450.45045    1.8113197 
  392000    18.605285    450.45045    1.7979767 
  394000     18.35043    450.45045    1.8125009 
  396000    18.379488    450.45045    1.8149455 
  398000    18.721234    450.45045    1.7500143 
  400000    18.375495    450.45045    1.7930772 
  402000    17.997344    450.45045    1.8297918 
  404000    17.995415    450.45045     1.829069 
  406000    17.745209    450.45045    1.8439732 
  408000    17.906105    450.45045    1.8148406 
  410000    18.213878    450.45045    1.7594585 
  412000    17.907639    450.45045    1.7982664 
  414000    17.481026    450.45045    1.8452618 
  416000    18.562809    450.45045    1.6849513 
  418000    17.498883    450.45045    1.8285193 
  420000    17.971841    450.45045    1.7522564 
  422000    17.366526    450.45045    1.8329457 
  424000    17.408987    450.45045    1.8165997 
  426000    17.723309    450.45045    1.7741405 
  428000    17.893561    450.45045    1.7394393 
  430000    18.177052    450.45045    1.6991258 
  432000    17.679116    450.45045    1.7687236 
  434000    17.302083    450.45045     1.821064 
  436000    17.872121    450.45045    1.7417556 
  438000    18.000919    450.45045    1.7273281 
  440000    17.374837    450.45045     1.815393 
  442000    17.867423    450.45045    1.7521704 
  444000    18.358795    450.45045    1.6900303 
  446000    17.871349    450.45045    1.7694761 
  448000    18.422754    450.45045    1.6996226 
  450000    18.178247    450.45045    1.7482233 
  452000    18.164554    450.45045    1.7583934 
  454000    18.022802    450.45045    1.7838582 
  456000    18.425715    450.45045    1.7425996 
  458000    17.907886    450.45045    1.8257602 
  460000    18.352131    450.45045    1.7837903 
  462000    17.135394    450.45045    1.9488012 
  464000     18.50013    450.45045    1.7758302 
  466000    18.198794    450.45045    1.8237131 
  468000    17.925109    450.45045    1.8729757 
  470000    18.113777    450.45045    1.8555434 
  472000    18.421832    450.45045    1.8249166 
  474000     19.00594    450.45045    1.7382531 
  476000    18.188948    450.45045     1.852242 
  478000    18.790826    450.45045    1.7793677 
  480000    19.188808    450.45045    1.7249056 
  482000    18.837127    450.45045    1.7747118 
  484000    18.117491    450.45045    1.8750827 
  486000     18.34932    450.45045    1.8491161 
  488000    17.570096    450.45045     1.954953 
  490000    18.216163    450.45045      1.86633 
  492000    18.885637    450.45045    1.7638006 
  494000    17.905694    450.45045    1.8993949 
  496000    19.145252    450.45045    1.7246718 
  498000     18.31994    450.45045    1.8301713 
  500000      18.5792    450.45045    1.7896436 
Loop time of 220.211 on 1 procs for 500000 steps with 500 atoms

Performance: 980877.422 tau/day, 2270.550 timesteps/s
92.4% CPU use with 1 MPI tasks x no OpenMP threads

MPI task timing breakdown:
Section |  min time  |  avg time  |  max time  |%varavg| %total
---------------------------------------------------------------
Pair    | 180.91     | 180.91     | 180.91     |   0.0 | 82.15
Neigh   | 27.426     | 27.426     | 27.426     |   0.0 | 12.45
Comm    | 6.0829     | 6.0829     | 6.0829     |   0.0 |  2.76
Output  | 0.02296    | 0.02296    | 0.02296    |   0.0 |  0.01
Modify  | 4.5815     | 4.5815     | 4.5815     |   0.0 |  2.08
Other   |            | 1.184      |            |       |  0.54

Nlocal:    500 ave 500 max 500 min
Histogram: 1 0 0 0 0 0 0 0 0 0
Nghost:    1960 ave 1960 max 1960 min
Histogram: 1 0 0 0 0 0 0 0 0 0
Neighs:    24616 ave 24616 max 24616 min
Histogram: 1 0 0 0 0 0 0 0 0 0

Total # of neighbors = 24616
Ave neighs/atom = 49.232
Neighbor list builds = 25000
Dangerous builds not checked
Total wall time: 0:03:40
