LAMMPS (19 Oct 2016)
# equation of state for LJ

variable temp equal 1.8
variable rho  equal 1.25

units lj
atom_style atomic

lattice    fcc ${rho}
lattice    fcc 1.25
Lattice spacing in x,y,z = 1.47361 1.47361 1.47361
region box block 0 5 0 5 0 5
create_box 1 box
Created orthogonal box = (0 0 0) to (7.36806 7.36806 7.36806)
  1 by 1 by 1 MPI processor grid
create_atoms 1 box
Created 500 atoms
mass       1 1.0

pair_style lj/cut 2.5
pair_coeff 1 1 1.0 1.0 2.5

velocity   all create ${temp} 87287
velocity   all create 1.8 87287

neighbor   0.3 bin
neigh_modify every 20 delay 0 check no

fix        1 all nvt temp ${temp} ${temp} 100
fix        1 all nvt temp 1.8 ${temp} 100
fix        1 all nvt temp 1.8 1.8 100
dump       1 all custom 70000 dump_t${temp}_r${rho}.lammpstrj id type x y z
dump       1 all custom 70000 dump_t1.8_r${rho}.lammpstrj id type x y z
dump       1 all custom 70000 dump_t1.8_r1.25.lammpstrj id type x y z
thermo     2000
thermo_style  custom step press vol temp
thermo_modify flush yes

run 500000
Neighbor list info ...
  1 neighbor list requests
  update every 20 steps, delay 0 steps, check no
  max neighbors/atom: 2000, page size: 100000
  master list distance cutoff = 2.8
  ghost atom cutoff = 2.8
  binsize = 1.4 -> bins = 6 6 6
Memory usage per processor = 3.32155 Mbytes
Step Press Volume Temp 
       0    21.528756          400          1.8 
    2000    28.637814          400    0.8838037 
    4000    28.528642          400   0.91344652 
    6000    28.313026          400   0.96869979 
    8000    28.613781          400   0.95657277 
   10000    28.828045          400   0.95541116 
   12000     28.81542          400   0.98050894 
   14000    29.203584          400   0.95332267 
   16000    29.040023          400    1.0021438 
   18000    29.176489          400    1.0148151 
   20000     29.33812          400    1.0236165 
   22000    29.149045          400    1.0829279 
   24000    29.268708          400    1.1032041 
   26000    29.735928          400    1.0773128 
   28000    30.080629          400    1.0704095 
   30000    30.013902          400    1.1161222 
   32000    30.232244          400     1.124564 
   34000    30.368082          400    1.1462568 
   36000    30.540923          400    1.1607858 
   38000    30.827081          400    1.1660128 
   40000    31.205831          400    1.1595263 
   42000    31.440306          400    1.1707752 
   44000    31.630681          400    1.1913717 
   46000    31.532831          400    1.2445015 
   48000    31.551639          400    1.2883571 
   50000    31.869438          400    1.2917313 
   52000    32.233712          400    1.2859609 
   54000    32.242751          400    1.3286496 
   56000    32.619863          400    1.3268582 
   58000     32.92209          400    1.3388952 
   60000    33.032357          400    1.3628975 
   62000    33.182249          400    1.3916488 
   64000    33.159539          400    1.4409434 
   66000    33.585989          400    1.4322938 
   68000    33.639665          400    1.4719996 
   70000    33.348763          400    1.5560844 
   72000    34.115048          400    1.5017015 
   74000    34.063988          400    1.5556717 
   76000    34.512919          400    1.5469283 
   78000    34.702327          400     1.558451 
   80000    34.503976          400    1.6334329 
   82000    34.599339          400     1.664905 
   84000    35.349907          400    1.6170186 
   86000    35.213586          400    1.6696169 
   88000    35.638274          400     1.658627 
   90000    35.329737          400    1.7409247 
   92000    35.794286          400    1.7195773 
   94000    35.577303          400    1.7857964 
   96000    36.108756          400    1.7562106 
   98000    36.662984          400    1.7207776 
  100000    36.367012          400    1.7953057 
  102000    36.540508          400    1.8034521 
  104000    36.483318          400    1.8459647 
  106000    37.347002          400    1.7639736 
  108000    37.305766          400    1.7923542 
  110000     37.07006          400    1.8538566 
  112000    36.821528          400    1.9126901 
  114000    37.479088          400    1.8535172 
  116000    37.326744          400    1.8889482 
  118000     37.29107          400    1.9180428 
  120000    37.315806          400    1.9228659 
  122000    37.143778          400    1.9553579 
  124000    37.970248          400    1.8616824 
  126000    37.780095          400    1.8938865 
  128000    37.487382          400    1.9340716 
  130000    36.913382          400    2.0116292 
  132000    37.623319          400    1.9144837 
  134000    37.659121          400    1.9113845 
  136000    36.723856          400     2.025376 
  138000    37.336331          400    1.9347312 
  140000    37.564435          400      1.89031 
  142000    37.160776          400    1.9297537 
  144000    37.051252          400    1.9227111 
  146000    37.542269          400     1.842501 
  148000    37.224902          400    1.8569427 
  150000    36.915471          400    1.8821236 
  152000    36.808796          400     1.865265 
  154000    36.893742          400    1.8309581 
  156000    36.582133          400    1.8502498 
  158000    36.273244          400    1.8684022 
  160000    36.206645          400    1.8499128 
  162000    36.329711          400    1.8157448 
  164000     36.64037          400    1.7516314 
  166000    36.621567          400    1.7292882 
  168000    36.279262          400    1.7546069 
  170000    35.885751          400    1.7892177 
  172000    35.789309          400    1.7749206 
  174000    35.598169          400    1.7898176 
  176000    36.056529          400    1.7089575 
  178000    35.374774          400    1.7963743 
  180000    35.820692          400    1.7210683 
  182000    35.577107          400    1.7383426 
  184000    35.992065          400    1.6804677 
  186000    35.621692          400    1.7172917 
  188000    35.597418          400    1.7239275 
  190000    35.341346          400    1.7530448 
  192000    35.728368          400    1.7004098 
  194000    35.949932          400    1.6701132 
  196000    35.641264          400    1.7166211 
  198000    35.425109          400    1.7574294 
  200000     35.51623          400    1.7490696 
  202000    35.608961          400    1.7472131 
  204000    35.454911          400    1.7798475 
  206000    35.815048          400    1.7435521 
  208000    36.114114          400    1.7202867 
  210000    36.307859          400    1.7091183 
  212000    36.518312          400    1.6983998 
  214000    36.448933          400    1.7288892 
  216000    36.253191          400    1.7721002 
  218000    36.536237          400    1.7480282 
  220000    36.349838          400    1.7973386 
  222000    36.689962          400    1.7662175 
  224000    36.805295          400    1.7718418 
  226000    36.519381          400    1.8246544 
  228000    36.455573          400    1.8532728 
  230000    37.342939          400    1.7530849 
  232000    36.668984          400    1.8640161 
  234000    36.936243          400    1.8406319 
  236000    37.321111          400    1.8046901 
  238000    37.394189          400    1.8061085 
  240000    37.157021          400    1.8541657 
  242000    37.377434          400    1.8303045 
  244000    36.642592          400    1.9351088 
  246000    37.194447          400    1.8700377 
  248000    37.656472          400    1.8124891 
  250000    37.727967          400    1.8080477 
  252000    37.216273          400    1.8746262 
  254000      37.3326          400    1.8594022 
  256000    37.056787          400    1.8885908 
  258000    36.975447          400    1.9048641 
  260000    37.573645          400     1.814166 
  262000    37.126303          400    1.8653526 
  264000    37.182942          400     1.850908 
  266000    37.128776          400    1.8493602 
  268000    37.436884          400    1.7984535 
  270000    36.740593          400    1.8765907 
  272000    37.021387          400    1.8185675 
  274000    36.811722          400    1.8347006 
  276000    37.385673          400    1.7377253 
  278000    36.885169          400    1.7901583 
  280000    36.364518          400    1.8513031 
  282000    36.617018          400    1.7931407 
  284000    36.853189          400     1.745107 
  286000    36.142631          400    1.8190532 
  288000    36.128471          400    1.8148908 
  290000    36.194857          400     1.787219 
  292000      36.4238          400    1.7422057 
  294000    36.596983          400    1.7040147 
  296000    35.514227          400    1.8350253 
  298000    36.034514          400      1.75402 
  300000    35.839838          400    1.7702097 
  302000    36.183884          400    1.7183382 
  304000    35.456753          400    1.8060063 
  306000    36.126221          400    1.7166679 
  308000    35.869122          400    1.7418811 
  310000    36.301596          400    1.6776395 
  312000    36.225335          400    1.6916729 
  314000     35.86784          400    1.7365793 
  316000    35.736906          400     1.755654 
  318000    35.915736          400    1.7261863 
  320000    35.806698          400    1.7501059 
  322000    35.918529          400    1.7457987 
  324000    35.778779          400    1.7695608 
  326000    35.283985          400    1.8382738 
  328000    36.388038          400    1.7061956 
  330000    35.711344          400    1.8053053 
  332000    36.207843          400    1.7530353 
  334000    36.197716          400    1.7736084 
  336000    35.909179          400    1.8189246 
  338000    36.269807          400    1.7844465 
  340000    36.544763          400    1.7624756 
  342000    37.081609          400    1.7133313 
  344000    36.302007          400    1.8222384 
  346000     37.08746          400    1.7393558 
  348000    36.851803          400    1.7782253 
  350000    36.296809          400    1.8703146 
  352000     36.55073          400    1.8455585 
  354000    36.476662          400    1.8720569 
  356000    36.377708          400     1.892644 
  358000    36.842826          400    1.8437867 
  360000    37.335716          400    1.7882417 
  362000    36.360017          400    1.9247996 
  364000    36.943511          400     1.859726 
  366000    36.890735          400    1.8710266 
  368000    36.516821          400    1.9226722 
  370000    36.998696          400    1.8627258 
  372000    36.992264          400    1.8703654 
  374000    37.375139          400    1.8205841 
  376000    37.053002          400     1.857629 
  378000     37.45616          400    1.8086015 
  380000    37.460929          400    1.8032828 
  382000    37.216433          400    1.8284741 
  384000    37.408686          400    1.7981988 
  386000     36.88898          400    1.8525598 
  388000    37.299554          400    1.7995899 
  390000    37.055201          400    1.8185716 
  392000    36.653742          400    1.8582644 
  394000    36.780994          400    1.8333742 
  396000    35.820222          400    1.9474109 
  398000    36.623545          400    1.8283671 
  400000    36.866258          400    1.7872318 
  402000    36.415482          400    1.8304367 
  404000    36.572673          400     1.794136 
  406000    36.146491          400    1.8376743 
  408000     36.42809          400    1.7865988 
  410000    36.378893          400    1.7829984 
  412000    36.537194          400     1.749664 
  414000    36.470935          400    1.7459734 
  416000    36.478707          400    1.7286923 
  418000    36.083745          400     1.770559 
  420000    36.442385          400    1.7214928 
  422000    36.138158          400     1.748964 
  424000    35.804359          400    1.7860431 
  426000    36.016952          400    1.7492528 
  428000    36.297702          400    1.7081251 
  430000    35.679352          400    1.7911089 
  432000    36.469722          400    1.6835669 
  434000    36.097163          400    1.7300075 
  436000    35.916904          400    1.7525821 
  438000    36.264703          400    1.7113852 
  440000    35.671507          400    1.7835008 
  442000    35.704704          400    1.7811385 
  444000    36.296162          400    1.7206379 
  446000    36.652462          400    1.6754555 
  448000    35.465346          400    1.8373353 
  450000    35.981228          400    1.7835116 
  452000    36.317632          400    1.7461767 
  454000    36.301726          400    1.7599476 
  456000    36.563052          400    1.7392181 
  458000    36.462536          400    1.7722259 
  460000    36.602303          400    1.7615798 
  462000    36.653068          400    1.7715033 
  464000    37.145634          400    1.7185322 
  466000     36.85356          400    1.7788839 
  468000    36.297856          400     1.859781 
  470000    36.399677          400    1.8597189 
  472000    36.672899          400    1.8296664 
  474000    36.631759          400    1.8446023 
  476000    37.035384          400     1.800766 
  478000    37.055617          400    1.8047454 
  480000    37.116227          400    1.8061994 
  482000    36.751052          400    1.8607593 
  484000     36.30721          400    1.9263335 
  486000    37.291364          400     1.799052 
  488000    36.640989          400    1.8866228 
  490000    37.716606          400    1.7497518 
  492000    36.946155          400    1.8530408 
  494000    36.826569          400    1.8600536 
  496000    37.867905          400    1.7228914 
  498000    36.881817          400    1.8498356 
  500000    36.874666          400     1.853285 
Loop time of 255.226 on 1 procs for 500000 steps with 500 atoms

Performance: 846309.743 tau/day, 1959.050 timesteps/s
94.7% CPU use with 1 MPI tasks x no OpenMP threads

MPI task timing breakdown:
Section |  min time  |  avg time  |  max time  |%varavg| %total
---------------------------------------------------------------
Pair    | 216.93     | 216.93     | 216.93     |   0.0 | 84.99
Neigh   | 26.807     | 26.807     | 26.807     |   nan | 10.50
Comm    | 5.9114     | 5.9114     | 5.9114     |   0.0 |  2.32
Output  | 0.015967   | 0.015967   | 0.015967   |   0.0 |  0.01
Modify  | 4.4062     | 4.4062     | 4.4062     |   0.0 |  1.73
Other   |            | 1.16       |            |       |  0.45

Nlocal:    500 ave 500 max 500 min
Histogram: 1 0 0 0 0 0 0 0 0 0
Nghost:    1970 ave 1970 max 1970 min
Histogram: 1 0 0 0 0 0 0 0 0 0
Neighs:    29854 ave 29854 max 29854 min
Histogram: 1 0 0 0 0 0 0 0 0 0

Total # of neighbors = 29854
Ave neighs/atom = 59.708
Neighbor list builds = 25000
Dangerous builds not checked
Total wall time: 0:04:15
