

1000 atoms

1 atom types

0 42 xlo xhi
0 42 ylo yhi
0 42 zlo zhi

Masses

1 40

Atoms

1      1      16.0902       32.1606          29.0371 
2      1      27.1777       10.255           2.08764 
3      1      16.0367       27.2413          35.8254 
4      1      13.1077       36.6897          31.5703 
5      1      0.843543      7.55603          33.6186 
6      1      22.0839       1.13943          7.65002 
7      1      24.7137       10.9428          28.5165 
8      1      20.8644       11.023           24.7328 
9      1      12.2102       22.543           15.1457 
10     1      26.7909       20.5275          18.7275 
11     1      31.1001       0.573074         5.63475 
12     1      18.1617       22.8495          35.6281 
13     1      5.70304       1.52942          3.2142  
14     1      39.2031       22.6001          4.80776 
15     1      38.5813       15.4756          26.9109 
16     1      4.00761       25.8595          22.1601 
17     1      27.3532       20.5865          2.19216 
18     1      37.1694       33.5456          25.6793 
19     1      36.8824       18.2778          9.97988 
20     1      7.68621       31.1459          22.4301 
21     1      36.4539       33.1611          6.33174 
22     1      19.6709       24.6746          26.3577 
23     1      10.6638       14.1831          29.8408 
24     1      12.5809       26.1024          0.198312
25     1      12.0381       16.7028          22.7231 
26     1      32.3032       8.62638          21.7327 
27     1      14.6721       7.11799          18.1727 
28     1      11.7479       39.6277          0.22766 
29     1      15.2421       6.51989          24.82   
30     1      38.1103       20.0349          23.4651 
31     1      1.22031       0.796645         27.5999 
32     1      25.2551       17.8681          21.7239 
33     1      5.46504       15.8468          27.8372 
34     1      10.2718       13.0473          28.4605 
35     1      2.79122       8.5703           3.55094 
36     1      22.0532       38.659           26.9114 
37     1      35.163        7.77814          15.7884 
38     1      31.4622       15.5025          13.8849 
39     1      26.1411       39.6236          3.3452  
40     1      18.4817       21.7514          31.0001 
41     1      36.7131       22.4548          4.58091 
42     1      31.9665       37.2891          13.96   
43     1      31.1035       22.8195          37.0828 
44     1      10.932        9.32121          3.1777  
45     1      21.8343       17.4515          26.3849 
46     1      38.6356       14.4249          8.56851 
47     1      35.1064       36.4552          39.182  
48     1      31.144        10.3804          7.17974 
49     1      1.14462       4.16717          3.58779 
50     1      27.2489       1.52831          7.08365 
51     1      25.6593       4.10378          3.48017 
52     1      16.3507       14.1631          25.7728 
53     1      7.08204       30.5332          34.2417 
54     1      18.7541       30.9452          23.9341 
55     1      34.9312       37.5076          15.0594 
56     1      5.60273       29.3691          18.6305 
57     1      38.2131       30.7836          4.40089 
58     1      36.0626       6.3868           8.65463 
59     1      37.8432       9.65893          31.506  
60     1      27.4694       24.8916          39.7063 
61     1      17.5624       10.4182          36.327  
62     1      33.8875       4.16944          6.14124 
63     1      10.9682       17.0241          3.65197 
64     1      37.4249       22.2256          2.18891 
65     1      23.6146       12.01            12.8283 
66     1      19.6618       35.6105          4.57633 
67     1      35.4192       38.6048          35.6531 
68     1      25.6352       19.8926          30.2296 
69     1      12.3244       34.4147          28.2194 
70     1      3.04341       38.9523          32.3723 
71     1      25.5464       9.54056          22.4931 
72     1      25.9283       31.8579          12.9464 
73     1      6.44413       33.1475          3.76063 
74     1      26.8439       35.8464          25.4497 
75     1      8.25289       37.5283          27.5081 
76     1      11.3366       0.60972          29.5276 
77     1      39.8008       27.4778          37.6139 
78     1      15.2968       37.0966          25.8854 
79     1      34.7461       18.8614          36.3027 
80     1      1.64903       17.2654          23.4296 
81     1      24.8132       16.4549          39.4867 
82     1      10.9976       37.9043          2.66824 
83     1      3.17572       1.66063          18.6636 
84     1      18.9198       13.2714          19.7264 
85     1      19.1501       24.6398          3.69113 
86     1      3.03352       6.05075          10.6204 
87     1      20.7231       11.4501          28.4825 
88     1      37.4385       39.7814          6.2183  
89     1      23.656        28.5125          35.7005 
90     1      29.7547       8.75594          20.6154 
91     1      14.9137       1.73682          17.8646 
92     1      8.18109       36.5434          17.0147 
93     1      25.9019       18.8494          33.4187 
94     1      5.08469       28.0854          36.2041 
95     1      16.519        9.166            0.196208
96     1      12.5726       10.1219          21.9689 
97     1      35.2572       7.78245          3.58236 
98     1      32.8469       30.9352          2.4144  
99     1      35.4075       19.7184          35.2387 
100    1      21.3251       35.2496          19.1859 
101    1      36.1389       19.2493          26.216  
102    1      13.7394       10.66            33.8112 
103    1      15.3549       7.60976          25.6446 
104    1      39.164        27.8197          29.8901 
105    1      35.7672       15.1929          26.2785 
106    1      4.55142       27.8216          5.6751  
107    1      24.5154       19.6237          2.58722 
108    1      31.7026       32.4012          37.1861 
109    1      23.3829       18.5138          13.4662 
110    1      20.424        31.5679          21.3189 
111    1      34.0244       38.616           19.0341 
112    1      6.31534       34.1744          2.24146 
113    1      35.2967       21.4794          32.6843 
114    1      23.05         9.77093          33.6822 
115    1      39.0072       10.019           15.0188 
116    1      14.9807       14.7938          16.9279 
117    1      7.88098       38.0372          18.494  
118    1      23.0665       12.6351          34.2891 
119    1      20.3657       12.3471          24.1244 
120    1      20.2532       1.19142          31.9381 
121    1      10.5126       16.6292          2.68482 
122    1      1.60744       2.54072          4.94299 
123    1      12.5866       21.8407          1.01411 
124    1      22.4904       26.4477          4.93524 
125    1      6.26087       7.27157          35.314  
126    1      34.5015       3.60882          7.42295 
127    1      24.3823       16.2477          1.36618 
128    1      32.4211       25.8098          37.8352 
129    1      5.87547       33.2634          6.44052 
130    1      33.4806       29.9336          38.9171 
131    1      27.6872       1.68238          22.9284 
132    1      3.70362       19.0605          20.8662 
133    1      22.841        18.4922          2.20064 
134    1      19.918        31.4851          34.5718 
135    1      21.9429       18.0418          36.5035 
136    1      31.4006       14.4085          29.5927 
137    1      27.535        25.3251          22.5771 
138    1      28.8139       24.7638          6.66308 
139    1      29.4853       4.03005          12.5254 
140    1      1.53127       33.2962          31.3762 
141    1      19.7696       15.8464          11.7179 
142    1      28.3211       35.8111          31.8169 
143    1      35.7336       36.2652          15.7596 
144    1      29.2261       11.5102          15.4719 
145    1      33.9937       4.27218          11.6882 
146    1      24.0951       11.8806          25.8277 
147    1      33.3857       2.23439          34.0366 
148    1      2.04045       33.8793          38.4891 
149    1      37.3277       3.05651          5.80901 
150    1      27.9332       29.6352          22.1312 
151    1      16.8702       26.3978          8.91735 
152    1      20.5668       22.5612          11.0431 
153    1      19.1644       35.1477          25.464  
154    1      0.0139703     27.6174          22.4369 
155    1      33.2021       17.5818          19.1333 
156    1      36.9877       5.6905           17.4135 
157    1      15.0049       37.1213          22.4596 
158    1      10.1005       24.9663          7.25638 
159    1      3.06378       37.229           29.8692 
160    1      9.88607       20.289           19.2665 
161    1      27.6505       11.3283          5.06406 
162    1      35.1386       19.107           4.84053 
163    1      0.56104       26.4761          25.4916 
164    1      2.62062       9.79635          11.2411 
165    1      6.84587       2.92609          21.7252 
166    1      4.94352       9.12469          15.0103 
167    1      33.8684       14.7134          0.672538
168    1      30.022        24.7194          25.4622 
169    1      7.97098       33.7974          31.3438 
170    1      16.164        4.86005          23.0866 
171    1      29.1345       17.6576          4.64437 
172    1      30.4508       25.2991          27.977  
173    1      36.1067       13.5806          12.6985 
174    1      15.578        6.78265          0.332343
175    1      33.3152       5.22061          14.1399 
176    1      32.8671       27.7752          19.6248 
177    1      7.8437        38.5565          23.4159 
178    1      37.5918       8.06461          14.7327 
179    1      30.9363       31.678           13.9261 
180    1      31.3979       39.9351          14.9135 
181    1      24.7692       10.7797          26.0137 
182    1      36.7508       21.315           26.2169 
183    1      39.1593       13.6845          3.78196 
184    1      0.959811      19.4676          0.805301
185    1      26.6294       16.4917          16.7715 
186    1      12.8883       36.6072          22.0152 
187    1      37.6486       28.6985          26.3715 
188    1      20.51         39.2912          26.304  
189    1      11.6533       9.50122          25.8136 
190    1      39.8381       1.60564          20.747  
191    1      21.8563       29.7337          0.605371
192    1      5.02568       16.6729          21.2191 
193    1      29.3289       37.378           1.67066 
194    1      29.7743       32.1917          13.064  
195    1      12.1294       30.8668          34.8898 
196    1      22.406        22.232           23.7555 
197    1      25.1962       16.9804          20.8325 
198    1      9.8338        18.8067          38.6498 
199    1      1.60694       33.0224          22.1888 
200    1      9.75441       29.4405          26.7683 
201    1      39.8625       36.9301          14.395  
202    1      14.8159       18.3753          1.50482 
203    1      30.7938       26.4579          2.39652 
204    1      3.81986       8.15267          14.9389 
205    1      7.33986       1.20712          21.1369 
206    1      26.3002       13.2009          13.8746 
207    1      35.7698       3.6138           38.9259 
208    1      15.0465       13.5991          21.6737 
209    1      7.79156       36.4979          5.00687 
210    1      34.6825       33.0273          2.31829 
211    1      19.7301       38.8404          32.5174 
212    1      13.902        1.40495          29.3077 
213    1      6.0194        23.0842          30.1907 
214    1      7.43906       32.7797          21.8905 
215    1      10.4897       39.0828          38.0624 
216    1      22.3019       7.05881          24.4176 
217    1      26.9804       6.74436          34.4401 
218    1      19.7          25.7068          21.7885 
219    1      21.5742       9.50217          8.26307 
220    1      28.0023       3.90775          0.482194
221    1      39.8736       20.3616          27.5994 
222    1      39.7083       39.9369          34.2415 
223    1      8.09714       6.22346          14.6674 
224    1      39.0105       38.8781          27.5512 
225    1      0.799131      29.2425          7.36191 
226    1      35.5357       25.4977          36.5468 
227    1      22.3431       14.1342          19.0744 
228    1      34.9219       2.2513           18.693  
229    1      12.3559       6.362            31.4874 
230    1      28.8361       7.58912          22.1913 
231    1      14.869        20.6339          28.4299 
232    1      14.5134       26.5281          10.1553 
233    1      22.9478       33.9879          10.2809 
234    1      39.977        14.881           1.79625 
235    1      18.7374       37.8778          26.2024 
236    1      7.60706       36.7166          22.2773 
237    1      12.1797       13.3117          10.6803 
238    1      18.9215       9.51943          37.9015 
239    1      8.02311       21.655           2.48264 
240    1      23.4448       6.50665          21.5884 
241    1      18.416        3.64004          29.1914 
242    1      0.143703      19.5047          20.8127 
243    1      27.4543       38.1638          18.486  
244    1      17.28         30.845           15.2493 
245    1      21.6373       15.7723          2.29793 
246    1      8.97905       38.9847          30.6038 
247    1      34.5146       27.0469          16.342  
248    1      14.6169       3.74092          27.1918 
249    1      12.9233       17.3495          37.9611 
250    1      10.9626       17.265           9.00253 
251    1      11.4861       13.4747          14.8801 
252    1      8.32332       35.0883          31.2113 
253    1      5.66064       14.5451          12.8564 
254    1      14.5133       3.97959          12.8014 
255    1      3.02333       33.5365          20.1709 
256    1      18.3635       5.60169          7.39169 
257    1      30.5277       39.6013          24.9083 
258    1      31.3959       39.6349          2.26008 
259    1      13.1109       25.4266          4.60297 
260    1      22.4844       26.3144          11.2502 
261    1      38.4107       38.149           37.9658 
262    1      16.4354       1.92022          12.9205 
263    1      4.67998       8.00867          18.2518 
264    1      31.9949       20.6543          28.869  
265    1      1.71925       12.296           17.9799 
266    1      23.5721       35.9005          6.55385 
267    1      9.64307       21.9766          34.468  
268    1      20.6766       32.7433          2.98421 
269    1      13.3443       13.3118          8.82224 
270    1      22.4603       25.2604          27.4358 
271    1      25.5732       20.9095          14.4634 
272    1      6.85932       20.0113          19.1465 
273    1      26.946        28.5155          37.3363 
274    1      5.45428       39.1621          14.4802 
275    1      26.1645       9.15288          11.5589 
276    1      26.8562       0.280499         21.3256 
277    1      25.0443       24.4306          6.21693 
278    1      11.9061       35.0638          34.8192 
279    1      22.4065       20.288           1.4881  
280    1      13.3639       28.7545          7.21198 
281    1      4.78966       5.37404          21.036  
282    1      3.19023       12.4676          7.26973 
283    1      20.3608       12.8158          22.6727 
284    1      25.873        21.3839          22.0234 
285    1      33.026        2.78825          35.0642 
286    1      29.7615       26.0364          10.6247 
287    1      17.5507       5.17717          5.41301 
288    1      28.3994       17.0896          35.6848 
289    1      33.7754       17.7903          9.12538 
290    1      11.0816       17.6539          16.3492 
291    1      33.9732       32.0563          3.64413 
292    1      30.9527       22.9061          39.3    
293    1      39.5211       6.88088          22.4978 
294    1      10.9058       38.8072          13.6977 
295    1      12.9233       23.2355          18.1413 
296    1      5.76512       32.4679          24.4738 
297    1      38.4059       10.7143          13.9756 
298    1      13.0048       23.9661          23.1991 
299    1      20.1737       26.5866          1.2801  
300    1      6.12583       36.0248          17.2205 
301    1      33.5948       33.0086          17.5811 
302    1      30.7556       25.8554          19.2442 
303    1      24.6109       25.1141          19.2594 
304    1      15.6289       29.304           0.446339
305    1      31.7771       33.4697          30.8249 
306    1      3.54029       1.43778          32.4038 
307    1      21.2343       2.11066          20.2129 
308    1      7.13371       13.3746          7.19613 
309    1      26.4108       19.6413          13.8898 
310    1      14.289        22.1774          4.34211 
311    1      27.9571       17.3356          5.6864  
312    1      33.4591       36.9349          28.9629 
313    1      36.3101       15.7724          17.2808 
314    1      33.6876       5.54049          36.2784 
315    1      19.1245       20.0876          11.8204 
316    1      33.7248       0.307768         15.1478 
317    1      31.2151       8.29795          37.1726 
318    1      36.4749       0.330836         14.6952 
319    1      10.2063       23.3223          36.6807 
320    1      30.7365       29.7355          28.4659 
321    1      15.874        25.3493          20.2342 
322    1      38.4199       17.5213          24.3127 
323    1      18.8432       0.647303         5.40148 
324    1      20.596        24.231           5.50823 
325    1      18.3874       10.3115          33.9721 
326    1      38.22         36.3065          14.4098 
327    1      37.8626       27.2161          20.7501 
328    1      21.2945       35.5655          7.91053 
329    1      20.9886       34.1458          27.8074 
330    1      27.7766       5.22879          39.9587 
331    1      32.0963       5.6396           32.4328 
332    1      20.8459       9.27941          6.09944 
333    1      8.29733       25.8987          19.2502 
334    1      7.01852       33.4139          19.0701 
335    1      3.99966       35.046           35.9574 
336    1      38.1022       10.0693          21.2678 
337    1      27.0029       9.44447          12.7337 
338    1      22.6074       5.26489          7.9855  
339    1      8.35505       2.19614          11.547  
340    1      35.6297       18.2443          11.437  
341    1      26.4402       3.03746          12.8406 
342    1      33.3533       30.1175          37.5688 
343    1      4.18765       37.7252          5.82215 
344    1      10.5133       30.7258          1.08631 
345    1      10.2292       31.1578          31.8564 
346    1      37.7732       3.34379          24.8884 
347    1      16.9805       38.4647          29.9898 
348    1      3.20044       31.8488          29.9846 
349    1      0.339915      21.6051          2.45666 
350    1      16.4503       0.00905206       5.40519 
351    1      33.7577       11.0038          17.9523 
352    1      34.1146       12.987           0.39732 
353    1      38.7883       4.90096          31.0956 
354    1      7.38378       15.0821          12.3101 
355    1      1.66013       17.8891          19.7452 
356    1      33.3088       32.9883          38.0162 
357    1      21.7258       38.6138          12.3793 
358    1      27.5585       11.6408          11.1293 
359    1      35.3449       8.60674          19.0841 
360    1      20.9242       28.7853          26.1932 
361    1      6.56123       18.0951          31.4506 
362    1      13.7497       18.4943          29.3141 
363    1      39.2148       34.5258          19.0145 
364    1      36.8153       28.5208          23.5696 
365    1      2.10394       22.0915          1.88881 
366    1      6.01426       18.0537          15.6552 
367    1      29.3511       16.3535          8.86831 
368    1      8.03773       22.1693          0.56542 
369    1      31.9274       7.86325          39.6747 
370    1      38.2317       14.2778          32.0568 
371    1      9.57957       27.5277          21.4965 
372    1      19.4079       22.4287          39.6042 
373    1      14.697        37.4884          3.20065 
374    1      29.7688       37.6856          10.3682 
375    1      34.1525       9.8687           5.4692  
376    1      29.6592       16.8832          29.15   
377    1      34.1704       4.84219          13.046  
378    1      5.01348       13.8728          25.337  
379    1      8.50149       16.6497          28.1346 
380    1      7.69001       16.1671          14.7647 
381    1      23.5034       6.54039          24.419  
382    1      6.39473       32.236           20.318  
383    1      28.0036       35.0449          13.9594 
384    1      16.3538       9.82403          25.968  
385    1      11.2574       26.8516          21.9381 
386    1      3.64838       9.45007          10.2197 
387    1      26.7673       28.8233          34.667  
388    1      32.51         38.3022          11.6195 
389    1      12.2142       3.88837          22.4573 
390    1      5.59741       29.5231          23.0931 
391    1      32.6014       13.862           30.1124 
392    1      35.1518       36.6249          31.1983 
393    1      11.2478       1.78885          22.1984 
394    1      17.347        25.218           5.02966 
395    1      16.4662       20.6066          33.1383 
396    1      39.445        30.8616          19.4193 
397    1      1.09578       6.39444          19.2374 
398    1      35.0655       1.74108          29.1333 
399    1      37.9716       26.7452          6.07976 
400    1      18.1199       31.8556          7.99817 
401    1      35.4207       36.9561          12.5517 
402    1      2.78326       31.2707          4.64143 
403    1      15.9636       0.891662         29.6162 
404    1      21.8529       10.431           16.2957 
405    1      39.2632       3.37026          20.0303 
406    1      9.12834       14.64            33.3825 
407    1      38.8792       8.96103          8.93877 
408    1      16.3818       27.454           14.612  
409    1      2.84347       38.1962          12.7544 
410    1      24.3922       8.01792          27.9157 
411    1      19.4726       38.4983          16.0193 
412    1      39.9252       8.19026          12.6598 
413    1      11.1569       1.53835          26.7051 
414    1      15.4864       3.01498          26.3612 
415    1      11.5444       26.7892          30.3829 
416    1      14.0479       38.9472          4.02251 
417    1      38.3338       31.2127          1.32219 
418    1      26.4244       9.20505          30.1856 
419    1      12.6906       0.589361         35.207  
420    1      27.2934       23.0026          33.0207 
421    1      13.4102       6.90268          29.8715 
422    1      4.507         38.7239          10.6042 
423    1      18.9817       33.1989          34.0425 
424    1      16.3175       35.5746          24.0645 
425    1      23.403        31.9235          4.64787 
426    1      32.3953       26.7166          18.7946 
427    1      4.32784       21.8861          20.2699 
428    1      15.1217       35.5378          1.30822 
429    1      16.3983       8.87756          30.7371 
430    1      16.6904       34.167           11.7353 
431    1      32.8153       8.5913           9.04269 
432    1      2.12292       29.6387          5.80845 
433    1      12.0567       37.2144          4.46184 
434    1      21.9187       22.5752          33.7935 
435    1      34.5164       35.7392          2.99263 
436    1      32.5425       11.8629          1.10392 
437    1      25.5954       14.1856          6.78234 
438    1      9.32064       31.8263          26.5072 
439    1      31.78         4.93232          36.7908 
440    1      26.4166       4.59227          17.621  
441    1      33.9745       10.3822          9.26019 
442    1      22.5006       19.2545          36.1891 
443    1      35.71         39.3035          15.1142 
444    1      24.9285       30.4307          29.4444 
445    1      39.937        22.0448          15.34   
446    1      36.1452       39.6438          7.45117 
447    1      32.2652       23.9172          14.4836 
448    1      23.0906       17.5055          19.9435 
449    1      23.996        21.1917          25.6141 
450    1      8.82862       30.438           36.2338 
451    1      37.9312       26.6787          28.1804 
452    1      25.1959       33.1251          24.1385 
453    1      11.1324       31.47            15.0273 
454    1      9.06733       8.13392          14.7733 
455    1      29.6663       36.9811          18.0905 
456    1      17.9206       33.4638          35.4904 
457    1      23.3638       31.243           39.4013 
458    1      14.5943       33.8512          7.36544 
459    1      28.1616       21.9105          30.8612 
460    1      20.1108       13.3621          28.8183 
461    1      6.62395       17.7496          7.88282 
462    1      28.022        7.69819          0.956595
463    1      20.4625       27.8081          36.0747 
464    1      8.88376       24.0323          28.1524 
465    1      2.40239       21.3292          9.65152 
466    1      24.9894       26.1085          7.27985 
467    1      29.8849       2.91137          32.2313 
468    1      22.4781       39.6906          37.5819 
469    1      28.3687       19.8462          26.7191 
470    1      3.82994       11.5549          33.936  
471    1      38.1452       14.7311          11.7729 
472    1      38.303        18.6002          38.0124 
473    1      1.17543       10.945           12.8375 
474    1      16.3903       3.7932           19.3332 
475    1      2.54234       23.9761          1.64482 
476    1      36.3747       37.3717          19.3451 
477    1      7.54838       28.267           25.6194 
478    1      34.1972       7.80222          36.1379 
479    1      31.4959       10.0819          1.60508 
480    1      19.005        26.3171          8.57927 
481    1      24.2665       16.3614          17.1882 
482    1      14.0096       18.7793          15.9133 
483    1      10.2767       32.2475          15.8719 
484    1      4.91136       9.50147          6.03048 
485    1      18.8264       3.48554          37.1516 
486    1      2.74755       20.4523          27.8505 
487    1      15.4031       27.169           13.705  
488    1      34.0967       39.9756          31.8799 
489    1      16.5108       33.4087          15.6894 
490    1      4.65418       15.8041          23.7131 
491    1      20.1514       30.4297          10.5183 
492    1      11.1722       20.0829          8.48865 
493    1      22.1403       11.2627          12.1812 
494    1      0.670644      36.5459          36.6728 
495    1      35.4568       8.86969          31.7108 
496    1      14.5203       25.1027          21.8246 
497    1      4.2848        20.9649          14.2979 
498    1      15.1189       29.313           5.77046 
499    1      5.8121        31.9195          39.2967 
500    1      21.2316       2.60227          26.3978 
501    1      6.22239       25.2927          26.0802 
502    1      21.4203       27.0489          38.3537 
503    1      39.9424       9.52503          20.7252 
504    1      34.4733       1.08878          30.2405 
505    1      39.6499       38.9263          35.0904 
506    1      0.577624      21.103           22.9821 
507    1      7.29992       17.5771          19.3748 
508    1      13.5348       19.7055          27.6631 
509    1      17.4111       24.077           34.9243 
510    1      29.9156       8.78803          28.3693 
511    1      5.89332       7.16451          3.03727 
512    1      28.7583       7.65892          18.3803 
513    1      23.8009       9.84251          30.9203 
514    1      22.9944       33.1904          5.32521 
515    1      17.8535       16.8077          30.147  
516    1      18.515        37.4408          28.8462 
517    1      21.3435       23.2634          15.4981 
518    1      16.1787       26.5108          15.506  
519    1      15.7984       38.1585          12.5433 
520    1      19.7122       15.3039          24.3203 
521    1      7.45196       39.2691          19.5952 
522    1      15.8911       16.9864          8.45251 
523    1      5.21225       34.3284          9.8142  
524    1      5.8618        7.27679          8.4614  
525    1      8.31037       15.653           18.7615 
526    1      11.1482       32.5741          26.3576 
527    1      10.3443       33.187           17.8555 
528    1      29.9149       9.91199          36.4038 
529    1      3.52275       6.37241          13.9974 
530    1      15.7892       31.5652          20.4706 
531    1      35.734        11.3856          23.4482 
532    1      6.09363       32.5024          31.2438 
533    1      5.34805       11.255           24.6959 
534    1      35.2581       34.5729          12.7894 
535    1      38.817        28.6807          33.1982 
536    1      32.8366       18.4963          5.64538 
537    1      22.5777       5.00875          38.6265 
538    1      8.00783       35.9615          37.793  
539    1      32.2076       1.83589          1.78361 
540    1      39.3317       10.6823          1.05475 
541    1      11.1609       14.5026          7.03317 
542    1      39.6445       8.86717          35.8131 
543    1      18.1844       4.89588          37.0208 