LAMMPS (19 Oct 2016)
# equation of state for LJ

variable temp equal 0.9
variable rho  equal 0.86

units lj
atom_style atomic

lattice    fcc ${rho}
lattice    fcc 0.86
Lattice spacing in x,y,z = 1.66925 1.66925 1.66925
region box block 0 5 0 5 0 5
create_box 1 box
Created orthogonal box = (0 0 0) to (8.34623 8.34623 8.34623)
  1 by 1 by 1 MPI processor grid
create_atoms 1 box
Created 500 atoms
mass       1 1.0

pair_style lj/cut 2.5
pair_coeff 1 1 1.0 1.0 2.5

velocity   all create ${temp} 87287
velocity   all create 0.9 87287

neighbor   0.3 bin
neigh_modify every 20 delay 0 check no

fix        1 all nvt temp ${temp} ${temp} 100
fix        1 all nvt temp 0.9 ${temp} 100
fix        1 all nvt temp 0.9 0.9 100
dump       1 all custom 70000 dump_t${temp}_r${rho}.lammpstrj id type x y z
dump       1 all custom 70000 dump_t0.9_r${rho}.lammpstrj id type x y z
dump       1 all custom 70000 dump_t0.9_r0.86.lammpstrj id type x y z
thermo     2000
thermo_style  custom step press vol temp
thermo_modify flush yes

run 500000
Neighbor list info ...
  1 neighbor list requests
  update every 20 steps, delay 0 steps, check no
  max neighbors/atom: 2000, page size: 100000
  master list distance cutoff = 2.8
  ghost atom cutoff = 2.8
  binsize = 1.4 -> bins = 6 6 6
Memory usage per processor = 3.32155 Mbytes
Step Press Volume Temp 
       0   -5.4040787    581.39535          0.9 
    2000   -2.1855891    581.39535   0.49034359 
    4000    -1.978119    581.39535   0.47575571 
    6000   -2.1363683    581.39535   0.51139287 
    8000   -2.1047986    581.39535   0.50440116 
   10000   -1.9426868    581.39535   0.50728113 
   12000    -1.994873    581.39535   0.51938146 
   14000   -2.0847842    581.39535    0.5407285 
   16000   -1.9053502    581.39535   0.53576876 
   18000   -1.6671441    581.39535   0.51599886 
   20000   -1.5960352    581.39535   0.53025185 
   22000   -1.5889956    581.39535   0.53914441 
   24000   -1.5280181    581.39535    0.5459897 
   26000   -1.3093553    581.39535   0.53267052 
   28000   -1.4697684    581.39535   0.57123734 
   30000   -1.3770709    581.39535   0.57863595 
   32000   -1.4077542    581.39535   0.59525415 
   34000   -1.3343125    581.39535    0.6098921 
   36000   -1.2051457    581.39535   0.61188242 
   38000   -1.2198327    581.39535   0.62826817 
   40000  -0.88559181    581.39535   0.60116881 
   42000   -1.0504161    581.39535   0.64706025 
   44000   -1.0300646    581.39535   0.66052148 
   46000  -0.83952072    581.39535   0.65963481 
   48000  -0.50571765    581.39535   0.64069929 
   50000  -0.66098561    581.39535   0.67221961 
   52000  -0.81378334    581.39535   0.72803424 
   54000   -0.4500399    581.39535   0.69054864 
   56000  -0.52455039    581.39535   0.71785918 
   58000  -0.37254857    581.39535    0.7246837 
   60000  -0.17546321    581.39535   0.71352561 
   62000   -0.1566137    581.39535   0.72178751 
   64000 -0.033133945    581.39535   0.73646398 
   66000   0.13491312    581.39535   0.74143365 
   68000    0.6878601    581.39535   0.67331869 
   70000    1.0808019    581.39535   0.66551755 
   72000    1.1336071    581.39535   0.68029892 
   74000    1.0006315    581.39535   0.69859132 
   76000    1.1218642    581.39535   0.71511228 
   78000    1.1667678    581.39535   0.72176146 
   80000    1.4441433    581.39535   0.72115057 
   82000    1.2787626    581.39535   0.75488372 
   84000    1.4395889    581.39535   0.75743446 
   86000    1.5828091    581.39535   0.75520681 
   88000    1.4140468    581.39535   0.78987687 
   90000    1.7234176    581.39535   0.76779906 
   92000    1.5265488    581.39535   0.82714827 
   94000    1.7444317    581.39535   0.80266137 
   96000     1.749147    581.39535   0.83583223 
   98000    1.8409445    581.39535   0.83567359 
  100000    2.0657922    581.39535   0.82292072 
  102000    2.0486838    581.39535    0.8428943 
  104000    2.1222506    581.39535    0.8638217 
  106000    2.2283574    581.39535   0.85340803 
  108000    2.3683689    581.39535     0.862729 
  110000    2.4822036    581.39535   0.86012727 
  112000    2.4165448    581.39535   0.88899503 
  114000    2.3955473    581.39535   0.92040983 
  116000    2.4289967    581.39535    0.9208055 
  118000    2.5011541    581.39535   0.92561074 
  120000    2.4142299    581.39535   0.93587505 
  122000    2.6939661    581.39535    0.9161635 
  124000     2.504327    581.39535   0.94305204 
  126000    2.6208849    581.39535   0.93816856 
  128000    2.5357336    581.39535   0.96539554 
  130000    2.8483273    581.39535   0.92903529 
  132000    2.5915612    581.39535   0.96294962 
  134000    2.6655211    581.39535   0.96605164 
  136000    2.7546337    581.39535   0.95078832 
  138000    2.7290038    581.39535   0.95437319 
  140000    2.7538284    581.39535   0.95877203 
  142000    2.4550655    581.39535    0.9811619 
  144000    2.8643993    581.39535   0.93860089 
  146000    2.6883603    581.39535   0.96260984 
  148000    2.5377786    581.39535   0.97675417 
  150000    2.8275291    581.39535   0.92822043 
  152000    2.3844993    581.39535   0.98782128 
  154000    2.4808814    581.39535   0.97012924 
  156000    2.4637058    581.39535   0.95748892 
  158000    2.4579489    581.39535   0.93672065 
  160000    2.5011791    581.39535   0.93471764 
  162000    2.6051119    581.39535   0.89453886 
  164000    2.3999243    581.39535   0.91793659 
  166000     2.578122    581.39535   0.88150899 
  168000    2.2148662    581.39535    0.9298722 
  170000    2.0875061    581.39535   0.92730334 
  172000    1.9600112    581.39535   0.94648184 
  174000    2.0387487    581.39535   0.91312814 
  176000    1.8525379    581.39535   0.92968343 
  178000    2.1333926    581.39535    0.8824575 
  180000    1.9872331    581.39535   0.89656882 
  182000    2.0655553    581.39535   0.88174316 
  184000    2.0251625    581.39535   0.88465976 
  186000    2.1733744    581.39535   0.84391464 
  188000    2.0194173    581.39535   0.86751832 
  190000    2.0184405    581.39535   0.86923538 
  192000    1.9625905    581.39535    0.8804829 
  194000    2.0442825    581.39535    0.8572018 
  196000    1.9989551    581.39535   0.85654929 
  198000    1.7843444    581.39535   0.89486429 
  200000    2.2451815    581.39535    0.8269294 
  202000    2.3711017    581.39535   0.81648713 
  204000      2.08151    581.39535   0.85138449 
  206000    1.9971044    581.39535   0.87685906 
  208000    2.3624707    581.39535   0.82063601 
  210000    2.1759139    581.39535   0.84961142 
  212000    2.1471959    581.39535   0.85814166 
  214000    2.0054101    581.39535   0.88945843 
  216000    2.1326145    581.39535   0.87622366 
  218000    2.0330829    581.39535   0.90825746 
  220000    2.3715756    581.39535   0.86507489 
  222000    2.6506199    581.39535   0.83896211 
  224000    2.3947503    581.39535   0.86533198 
  226000    2.2995474    581.39535   0.89442585 
  228000    2.3656471    581.39535   0.89015441 
  230000     2.310337    581.39535   0.91553656 
  232000    2.3392621    581.39535   0.91374017 
  234000    2.4940553    581.39535   0.91340763 
  236000    2.3808677    581.39535   0.94310955 
  238000    2.4473625    581.39535   0.93554984 
  240000    2.4451872    581.39535    0.9235097 
  242000    2.5713708    581.39535   0.91330703 
  244000    2.6520487    581.39535   0.91197278 
  246000    2.7376305    581.39535   0.90509731 
  248000    2.4264006    581.39535   0.96544433 
  250000    2.2492933    581.39535   0.96576511 
  252000    2.4398706    581.39535    0.9528766 
  254000    2.6296701    581.39535   0.93098057 
  256000    2.6582801    581.39535   0.93340919 
  258000      2.62677    581.39535   0.92692839 
  260000    2.6707793    581.39535   0.91580412 
  262000     2.409313    581.39535   0.96702297 
  264000    2.4563299    581.39535   0.94814637 
  266000    2.2468211    581.39535   0.96689561 
  268000    2.6323136    581.39535   0.91283639 
  270000    2.4385998    581.39535   0.93921339 
  272000    2.3906086    581.39535   0.94673729 
  274000    2.3171505    581.39535   0.95174162 
  276000    2.5449189    581.39535   0.91736159 
  278000    2.5600994    581.39535   0.89776284 
  280000    2.3773405    581.39535    0.9088389 
  282000    2.4343717    581.39535   0.91203956 
  284000     2.447467    581.39535   0.88527498 
  286000     2.395767    581.39535   0.88698449 
  288000    2.4090198    581.39535   0.87509295 
  290000    2.1210198    581.39535   0.91917716 
  292000    2.2925068    581.39535   0.89048343 
  294000    2.2910762    581.39535   0.87104776 
  296000    2.5033462    581.39535   0.84391131 
  298000    2.1528116    581.39535   0.89426956 
  300000    2.1298527    581.39535   0.87917582 
  302000    2.3740348    581.39535   0.85258638 
  304000     2.212342    581.39535   0.85605225 
  306000    2.1020407    581.39535   0.87782592 
  308000    2.2954473    581.39535    0.8501555 
  310000    2.4590904    581.39535   0.82265351 
  312000    2.0792332    581.39535   0.85841403 
  314000    1.8732346    581.39535   0.91008675 
  316000    2.0266646    581.39535    0.8829297 
  318000    2.2898023    581.39535   0.85587837 
  320000    1.9259137    581.39535   0.89662469 
  322000    1.8403691    581.39535   0.90953579 
  324000    2.3345032    581.39535    0.8350681 
  326000    2.3443314    581.39535   0.83187151 
  328000    2.4255745    581.39535   0.83709676 
  330000    2.1800599    581.39535   0.89189328 
  332000    2.0001402    581.39535    0.9034733 
  334000     2.219534    581.39535    0.8746555 
  336000    2.2864793    581.39535   0.88138176 
  338000    2.2353856    581.39535   0.89080633 
  340000     2.398763    581.39535   0.88903824 
  342000    2.4281588    581.39535   0.89107989 
  344000    2.3036065    581.39535   0.90343965 
  346000    2.4195836    581.39535   0.89280117 
  348000    2.4906846    581.39535   0.87665508 
  350000    2.3079725    581.39535   0.91843359 
  352000    2.5772249    581.39535   0.88459082 
  354000    2.5315892    581.39535   0.89916295 
  356000    2.4623724    581.39535   0.91384752 
  358000    2.6185115    581.39535   0.90293393 
  360000    2.3995286    581.39535   0.94626215 
  362000    2.5454043    581.39535   0.90285708 
  364000     2.539586    581.39535   0.91977899 
  366000    2.5737102    581.39535   0.91747709 
  368000     2.461891    581.39535   0.93704741 
  370000    2.4804781    581.39535   0.93827374 
  372000    2.5473316    581.39535   0.93407269 
  374000    2.3342893    581.39535   0.96201381 
  376000    2.4648258    581.39535    0.9408059 
  378000    2.6789247    581.39535   0.90175504 
  380000    2.5198361    581.39535   0.93197625 
  382000    2.5398035    581.39535   0.93014267 
  384000    2.2619354    581.39535   0.95582459 
  386000     2.519945    581.39535   0.93189879 
  388000    2.5037649    581.39535     0.924819 
  390000     2.281745    581.39535   0.93904432 
  392000    2.5829587    581.39535   0.89741813 
  394000     2.668057    581.39535   0.88054414 
  396000    2.4587286    581.39535   0.89627395 
  398000    2.3283059    581.39535   0.92943943 
  400000    2.1042806    581.39535   0.93909172 
  402000    2.4209926    581.39535   0.90112508 
  404000    2.4448745    581.39535   0.87435381 
  406000    2.1253217    581.39535   0.92517921 
  408000    2.0990547    581.39535   0.91513486 
  410000    2.1866608    581.39535   0.90174372 
  412000     2.398737    581.39535    0.8646397 
  414000    2.2060855    581.39535   0.88341923 
  416000    2.2206542    581.39535   0.88030732 
  418000    2.2255328    581.39535   0.87065231 
  420000    2.3662027    581.39535    0.8505167 
  422000    2.2671911    581.39535   0.86939039 
  424000    2.0700079    581.39535    0.8800616 
  426000    2.2303616    581.39535   0.87365616 
  428000    1.9646792    581.39535   0.89317411 
  430000    1.9888791    581.39535   0.88488413 
  432000    1.9912731    581.39535   0.89635034 
  434000    2.3686549    581.39535   0.83112028 
  436000     1.915409    581.39535   0.91176033 
  438000     2.280168    581.39535   0.85069551 
  440000    2.4197992    581.39535    0.8402567 
  442000    2.3586901    581.39535   0.85946895 
  444000    2.1062918    581.39535   0.88318223 
  446000    1.7386327    581.39535   0.93905083 
  448000    2.2645342    581.39535   0.86745507 
  450000    2.2022219    581.39535   0.87601842 
  452000    2.0323955    581.39535   0.91589975 
  454000    2.2637542    581.39535    0.8917676 
  456000    2.2505298    581.39535   0.88774958 
  458000    2.3239244    581.39535   0.89874629 
  460000    2.1636733    581.39535   0.91503207 
  462000    2.5139359    581.39535   0.88856985 
  464000    2.4853711    581.39535   0.90146902 
  466000    2.1969436    581.39535   0.93460557 
  468000    2.6290947    581.39535   0.88809093 
  470000     2.543066    581.39535   0.88931579 
  472000    2.5595893    581.39535   0.89055994 
  474000    2.4240158    581.39535   0.93104964 
  476000    2.4375349    581.39535   0.92485987 
  478000    2.2581199    581.39535   0.94974089 
  480000    2.3044976    581.39535   0.94641944 
  482000    2.3846966    581.39535   0.93797611 
  484000    2.6163244    581.39535   0.90477112 
  486000    2.5445414    581.39535   0.92489138 
  488000    2.6479479    581.39535    0.8967422 
  490000    2.3256027    581.39535   0.93499739 
  492000     2.585358    581.39535   0.91773941 
  494000    2.5934912    581.39535   0.90786964 
  496000    2.5457546    581.39535   0.91698703 
  498000    2.3958373    581.39535    0.9438935 
  500000    2.3434051    581.39535   0.92946052 
Loop time of 165.678 on 1 procs for 500000 steps with 500 atoms

Performance: 1303735.646 tau/day, 3017.907 timesteps/s
97.0% CPU use with 1 MPI tasks x no OpenMP threads

MPI task timing breakdown:
Section |  min time  |  avg time  |  max time  |%varavg| %total
---------------------------------------------------------------
Pair    | 133.59     | 133.59     | 133.59     |   0.0 | 80.63
Neigh   | 21.925     | 21.925     | 21.925     |   0.0 | 13.23
Comm    | 5.1892     | 5.1892     | 5.1892     |   0.0 |  3.13
Output  | 0.013914   | 0.013914   | 0.013914   |   0.0 |  0.01
Modify  | 3.9948     | 3.9948     | 3.9948     |   0.0 |  2.41
Other   |            | 0.9625     |            |       |  0.58

Nlocal:    500 ave 500 max 500 min
Histogram: 1 0 0 0 0 0 0 0 0 0
Nghost:    1834 ave 1834 max 1834 min
Histogram: 1 0 0 0 0 0 0 0 0 0
Neighs:    19141 ave 19141 max 19141 min
Histogram: 1 0 0 0 0 0 0 0 0 0

Total # of neighbors = 19141
Ave neighs/atom = 38.282
Neighbor list builds = 25000
Dangerous builds not checked
Total wall time: 0:02:45
