LAMMPS (19 Oct 2016)
# equation of state for LJ

variable temp equal 0.9
variable rho  equal 0.71

units lj
atom_style atomic

lattice    fcc ${rho}
lattice    fcc 0.71
Lattice spacing in x,y,z = 1.77937 1.77937 1.77937
region box block 0 5 0 5 0 5
create_box 1 box
Created orthogonal box = (0 0 0) to (8.89687 8.89687 8.89687)
  1 by 1 by 1 MPI processor grid
create_atoms 1 box
Created 500 atoms
mass       1 1.0

pair_style lj/cut 2.5
pair_coeff 1 1 1.0 1.0 2.5

velocity   all create ${temp} 87287
velocity   all create 0.9 87287

neighbor   0.3 bin
neigh_modify every 20 delay 0 check no

fix        1 all nvt temp ${temp} ${temp} 100
fix        1 all nvt temp 0.9 ${temp} 100
fix        1 all nvt temp 0.9 0.9 100
dump       1 all custom 70000 dump_t${temp}_r${rho}.lammpstrj id type x y z
dump       1 all custom 70000 dump_t0.9_r${rho}.lammpstrj id type x y z
dump       1 all custom 70000 dump_t0.9_r0.71.lammpstrj id type x y z
thermo     2000
thermo_style  custom step press vol temp
thermo_modify flush yes

run 500000
Neighbor list info ...
  1 neighbor list requests
  update every 20 steps, delay 0 steps, check no
  max neighbors/atom: 2000, page size: 100000
  master list distance cutoff = 2.8
  ghost atom cutoff = 2.8
  binsize = 1.4 -> bins = 7 7 7
Memory usage per processor = 3.32306 Mbytes
Step Press Volume Temp 
       0   -4.7494353    704.22535          0.9 
    2000  -0.77277252    704.22535   0.59031426 
    4000  -0.66432556    704.22535   0.60031013 
    6000  -0.74220742    704.22535   0.60485816 
    8000  -0.80082862    704.22535   0.63530353 
   10000  -0.56419113    704.22535   0.63481049 
   12000  -0.70686494    704.22535    0.6176121 
   14000  -0.76358847    704.22535   0.64848951 
   16000  -0.41181536    704.22535   0.61304007 
   18000  -0.48493066    704.22535   0.63614437 
   20000  -0.54632161    704.22535   0.63942886 
   22000  -0.76009749    704.22535   0.68335608 
   24000  -0.61662592    704.22535   0.68769665 
   26000  -0.53519911    704.22535   0.67109026 
   28000  -0.49757702    704.22535   0.68382551 
   30000  -0.35379089    704.22535   0.67729255 
   32000  -0.46480811    704.22535   0.70637496 
   34000  -0.51865234    704.22535   0.74091402 
   36000  -0.54531004    704.22535   0.74557291 
   38000  -0.38527254    704.22535   0.75276875 
   40000  -0.41859194    704.22535   0.75365284 
   42000  -0.35773805    704.22535   0.75549929 
   44000  -0.27626984    704.22535   0.75790555 
   46000  -0.13067066    704.22535   0.76234117 
   48000  0.098494442    704.22535   0.77421652 
   50000  -0.19291405    704.22535   0.80311613 
   52000 -0.079669925    704.22535   0.81117263 
   54000  -0.12903069    704.22535   0.83366439 
   56000 -0.080577081    704.22535   0.83667342 
   58000  0.028548213    704.22535   0.82278004 
   60000   0.13162551    704.22535   0.82400359 
   62000  0.052219279    704.22535   0.87789425 
   64000  0.035271642    704.22535   0.87656078 
   66000   0.03918356    704.22535   0.88646412 
   68000 -0.024002516    704.22535   0.87776048 
   70000   0.26107385    704.22535   0.87581161 
   72000   0.28229544    704.22535    0.8954044 
   74000   0.36772873    704.22535   0.90293526 
   76000  -0.15808778    704.22535   0.95904569 
   78000   0.36857658    704.22535   0.90410823 
   80000   0.33473819    704.22535   0.92090946 
   82000   0.34045579    704.22535    0.9318922 
   84000   0.43559393    704.22535   0.91620326 
   86000   0.16709568    704.22535   0.98266057 
   88000   0.50383537    704.22535   0.92850312 
   90000   0.39626886    704.22535   0.92675303 
   92000   0.30313921    704.22535   0.96219915 
   94000    0.5005257    704.22535   0.91821222 
   96000   0.23025586    704.22535   0.96406348 
   98000   0.24324845    704.22535   0.97139854 
  100000   0.43511697    704.22535   0.96076685 
  102000   0.42673584    704.22535   0.93059001 
  104000   0.28489337    704.22535   0.96793363 
  106000    0.6107666    704.22535   0.90351227 
  108000   0.42061378    704.22535   0.94228863 
  110000   0.20505172    704.22535   0.96597471 
  112000   0.36290049    704.22535   0.92970103 
  114000   0.37546126    704.22535   0.92222782 
  116000   0.36761003    704.22535    0.9255346 
  118000   0.50246515    704.22535   0.90380797 
  120000   0.34616752    704.22535   0.90756444 
  122000  0.097791661    704.22535   0.93951068 
  124000   0.19018046    704.22535   0.91704285 
  126000   0.10312834    704.22535   0.92952176 
  128000   0.30647732    704.22535   0.89031751 
  130000   0.10779864    704.22535   0.90636234 
  132000   0.16667993    704.22535   0.88946207 
  134000   0.13790224    704.22535   0.86564474 
  136000   0.28232079    704.22535   0.86760874 
  138000   0.15532262    704.22535   0.89371199 
  140000  0.013840404    704.22535   0.89666763 
  142000 -0.038312655    704.22535   0.88374533 
  144000   0.27038452    704.22535    0.8263267 
  146000  0.035619022    704.22535   0.86208029 
  148000   0.28736148    704.22535   0.82437357 
  150000     0.205995    704.22535   0.87269232 
  152000     0.116666    704.22535   0.85638738 
  154000  0.072256525    704.22535   0.87174928 
  156000   0.17335967    704.22535    0.8508628 
  158000    0.1025076    704.22535    0.8267099 
  160000  0.058749988    704.22535   0.88511708 
  162000   0.34086203    704.22535   0.83486667 
  164000  0.090984596    704.22535   0.86729577 
  166000   0.46005019    704.22535   0.83068363 
  168000    0.1650435    704.22535   0.87775892 
  170000   0.21058278    704.22535   0.85567864 
  172000   0.41578306    704.22535   0.87454055 
  174000   0.43575824    704.22535   0.88689549 
  176000   0.22657626    704.22535   0.90444329 
  178000   0.14972935    704.22535   0.89419062 
  180000  -0.15584502    704.22535   0.98854869 
  182000   0.22010915    704.22535   0.90026148 
  184000   0.18206219    704.22535   0.91892856 
  186000   0.37594836    704.22535   0.90188963 
  188000   0.26948828    704.22535   0.91158571 
  190000   0.32750925    704.22535   0.89936088 
  192000    0.3609114    704.22535   0.92827944 
  194000    0.3688152    704.22535   0.93205413 
  196000   0.61908198    704.22535   0.88388927 
  198000   0.11136444    704.22535   0.94949655 
  200000   0.56268347    704.22535   0.86869969 
  202000    0.5774639    704.22535   0.91051109 
  204000   0.22236398    704.22535   0.95174766 
  206000   0.31811248    704.22535   0.93642514 
  208000   0.29359318    704.22535   0.95255715 
  210000   0.47969078    704.22535   0.89852169 
  212000   0.15842005    704.22535   0.95924731 
  214000   0.81787044    704.22535   0.85834964 
  216000    0.2938879    704.22535    0.9357853 
  218000   0.37895525    704.22535   0.90489515 
  220000   0.25740133    704.22535   0.93636308 
  222000   0.16279581    704.22535   0.94768037 
  224000   0.60875583    704.22535   0.85433705 
  226000   0.18912477    704.22535   0.92717156 
  228000   0.23854709    704.22535   0.94951357 
  230000   0.30279279    704.22535   0.88829101 
  232000    0.3512622    704.22535   0.88516202 
  234000   0.17219654    704.22535   0.93017937 
  236000   0.11710098    704.22535   0.93498014 
  238000  0.014489622    704.22535   0.90451268 
  240000   0.11476615    704.22535   0.89332936 
  242000   0.10054217    704.22535   0.89742565 
  244000   0.16775269    704.22535    0.8853366 
  246000   0.12456967    704.22535   0.89848896 
  248000   0.19471384    704.22535   0.87227996 
  250000  0.021216687    704.22535   0.86341759 
  252000   0.30179354    704.22535   0.82919377 
  254000  0.036619669    704.22535   0.87253648 
  256000    0.3115467    704.22535   0.84098593 
  258000  0.067196041    704.22535   0.87891086 
  260000   0.28651096    704.22535   0.85308799 
  262000  -0.19084587    704.22535   0.89398108 
  264000 -0.0043140719    704.22535   0.88221468 
  266000   0.14122559    704.22535   0.87408949 
  268000   0.24413995    704.22535   0.85560549 
  270000  0.077935465    704.22535   0.86858074 
  272000  0.067946864    704.22535   0.87648519 
  274000   0.19361481    704.22535    0.8855587 
  276000  0.094229694    704.22535   0.90129315 
  278000  0.072361563    704.22535   0.87768103 
  280000  0.030858247    704.22535   0.92354331 
  282000   0.25293033    704.22535   0.87939266 
  284000   0.10405847    704.22535    0.9324574 
  286000   0.31118185    704.22535   0.91558056 
  288000   0.14176068    704.22535   0.92455178 
  290000   0.25829085    704.22535   0.92923951 
  292000   0.13554936    704.22535   0.91505467 
  294000   0.11321454    704.22535   0.94244967 
  296000   0.40061638    704.22535   0.91337822 
  298000   0.20803052    704.22535   0.92087107 
  300000   0.53628672    704.22535   0.91738739 
  302000   0.25179329    704.22535   0.91292866 
  304000   0.37662795    704.22535    0.9338712 
  306000   0.40707445    704.22535   0.91037081 
  308000    0.5568116    704.22535    0.8978285 
  310000   0.29119561    704.22535   0.93274707 
  312000   0.21544937    704.22535    0.9550557 
  314000   0.68040392    704.22535   0.90201205 
  316000   0.24183524    704.22535    0.9124653 
  318000   0.39074848    704.22535   0.91515496 
  320000   0.36829571    704.22535    0.9197232 
  322000   0.25828457    704.22535   0.92089987 
  324000   0.12933303    704.22535   0.92501177 
  326000   0.30702945    704.22535   0.90208917 
  328000   0.44214745    704.22535   0.88361746 
  330000   0.20175706    704.22535   0.91263183 
  332000   0.36258966    704.22535   0.89541986 
  334000  -0.01091821    704.22535   0.91391408 
  336000   0.31428741    704.22535   0.87018323 
  338000    0.2513607    704.22535     0.897587 
  340000  0.052159965    704.22535   0.89392588 
  342000  0.081035612    704.22535   0.88095216 
  344000  0.094438008    704.22535   0.86016891 
  346000   0.12371084    704.22535   0.85423477 
  348000   0.18208027    704.22535   0.84261502 
  350000 -0.013262723    704.22535   0.85973354 
  352000   0.01547251    704.22535   0.85325379 
  354000  -0.23306314    704.22535    0.8680716 
  356000 -0.076600545    704.22535   0.85002364 
  358000   0.11113699    704.22535   0.81997554 
  360000   -0.1108484    704.22535   0.84429275 
  362000   0.26402707    704.22535   0.78866985 
  364000 -0.025213394    704.22535   0.82741503 
  366000 -0.054649252    704.22535   0.81324311 
  368000  -0.17077007    704.22535   0.84097402 
  370000  -0.16096666    704.22535   0.84496943 
  372000 -0.087157514    704.22535   0.83670257 
  374000 -0.025736617    704.22535   0.82511113 
  376000   0.10989502    704.22535   0.80179477 
  378000  -0.27012989    704.22535   0.88577726 
  380000   0.13522067    704.22535   0.85613623 
  382000   0.10715372    704.22535   0.84778553 
  384000  0.057153664    704.22535    0.8591683 
  386000    0.4018833    704.22535    0.8485087 
  388000   0.22880533    704.22535   0.84655234 
  390000   0.20456869    704.22535   0.86540823 
  392000   0.12060238    704.22535   0.87590433 
  394000   0.35431834    704.22535   0.85821537 
  396000  0.098679255    704.22535   0.88740823 
  398000   0.21537026    704.22535   0.88184209 
  400000   0.33957375    704.22535   0.87407462 
  402000    0.3254066    704.22535   0.87179985 
  404000  0.083826299    704.22535   0.90280562 
  406000   0.31314092    704.22535   0.86306027 
  408000   0.14140307    704.22535   0.89775569 
  410000   0.23905753    704.22535   0.89158092 
  412000   0.32024672    704.22535   0.88440416 
  414000   0.39726037    704.22535    0.8817636 
  416000   0.31369601    704.22535   0.88395178 
  418000   0.27217738    704.22535   0.87725828 
  420000   0.35263377    704.22535   0.89416967 
  422000   0.27714468    704.22535    0.9014687 
  424000   0.20733554    704.22535   0.90556095 
  426000    0.1994471    704.22535    0.9235431 
  428000   0.35633891    704.22535   0.89894434 
  430000   0.32722677    704.22535   0.90725906 
  432000   0.36710019    704.22535   0.90418376 
  434000    0.4500288    704.22535   0.90342575 
  436000   0.18068752    704.22535   0.92210934 
  438000   0.32487845    704.22535   0.92568297 
  440000   0.38135389    704.22535   0.90781178 
  442000   0.40777434    704.22535   0.92169444 
  444000   0.32259708    704.22535   0.91800188 
  446000   0.31358378    704.22535   0.92491164 
  448000   0.29686422    704.22535   0.91942651 
  450000   0.13027569    704.22535   0.94348307 
  452000   0.35996351    704.22535   0.92573593 
  454000   0.17113442    704.22535    0.9490138 
  456000    0.3427936    704.22535   0.90996429 
  458000   0.23517591    704.22535   0.92957837 
  460000   0.45193938    704.22535   0.90678835 
  462000   0.52845775    704.22535   0.89375616 
  464000   0.35784949    704.22535   0.89820062 
  466000  0.086203415    704.22535    0.9313797 
  468000   0.54633183    704.22535   0.86027338 
  470000   0.16684066    704.22535   0.89377657 
  472000   0.22752879    704.22535   0.90615889 
  474000   0.24523003    704.22535   0.89970275 
  476000   0.28634028    704.22535   0.87808536 
  478000   0.39290667    704.22535   0.87004603 
  480000    0.4217463    704.22535   0.84032988 
  482000  0.033698998    704.22535    0.9223945 
  484000 -0.016306013    704.22535   0.89374547 
  486000   0.22654962    704.22535   0.83062302 
  488000   0.18899018    704.22535   0.85524315 
  490000  0.041518615    704.22535   0.85686914 
  492000  0.064957058    704.22535   0.86330051 
  494000  0.021197559    704.22535    0.8422347 
  496000   0.25360279    704.22535   0.84056897 
  498000  0.089997414    704.22535   0.84547401 
  500000   0.36798762    704.22535   0.83004707 
Loop time of 168.974 on 1 procs for 500000 steps with 500 atoms

Performance: 1278303.732 tau/day, 2959.036 timesteps/s
94.8% CPU use with 1 MPI tasks x no OpenMP threads

MPI task timing breakdown:
Section |  min time  |  avg time  |  max time  |%varavg| %total
---------------------------------------------------------------
Pair    | 135.18     | 135.18     | 135.18     |   0.0 | 80.00
Neigh   | 21.944     | 21.944     | 21.944     |   0.0 | 12.99
Comm    | 5.8916     | 5.8916     | 5.8916     |   0.0 |  3.49
Output  | 0.027531   | 0.027531   | 0.027531   |   0.0 |  0.02
Modify  | 4.845      | 4.845      | 4.845      |   0.0 |  2.87
Other   |            | 1.085      |            |       |  0.64

Nlocal:    500 ave 500 max 500 min
Histogram: 1 0 0 0 0 0 0 0 0 0
Nghost:    1629 ave 1629 max 1629 min
Histogram: 1 0 0 0 0 0 0 0 0 0
Neighs:    15932 ave 15932 max 15932 min
Histogram: 1 0 0 0 0 0 0 0 0 0

Total # of neighbors = 15932
Ave neighs/atom = 31.864
Neighbor list builds = 25000
Dangerous builds not checked
Total wall time: 0:02:48
