LAMMPS (19 Oct 2016)
# equation of state for LJ

variable temp equal 0.9
variable rho  equal 0.905

units lj
atom_style atomic

lattice    fcc ${rho}
lattice    fcc 0.905
Lattice spacing in x,y,z = 1.64111 1.64111 1.64111
region box block 0 5 0 5 0 5
create_box 1 box
Created orthogonal box = (0 0 0) to (8.20554 8.20554 8.20554)
  1 by 1 by 1 MPI processor grid
create_atoms 1 box
Created 500 atoms
mass       1 1.0

pair_style lj/cut 2.5
pair_coeff 1 1 1.0 1.0 2.5

velocity   all create ${temp} 87287
velocity   all create 0.9 87287

neighbor   0.3 bin
neigh_modify every 20 delay 0 check no

fix        1 all nvt temp ${temp} ${temp} 100
fix        1 all nvt temp 0.9 ${temp} 100
fix        1 all nvt temp 0.9 0.9 100
dump       1 all custom 70000 dump_t${temp}_r${rho}.lammpstrj id type x y z
dump       1 all custom 70000 dump_t0.9_r${rho}.lammpstrj id type x y z
dump       1 all custom 70000 dump_t0.9_r0.905.lammpstrj id type x y z
thermo     2000
thermo_style  custom step press vol temp
thermo_modify flush yes

run 500000
Neighbor list info ...
  1 neighbor list requests
  update every 20 steps, delay 0 steps, check no
  max neighbors/atom: 2000, page size: 100000
  master list distance cutoff = 2.8
  ghost atom cutoff = 2.8
  binsize = 1.4 -> bins = 6 6 6
Memory usage per processor = 3.32155 Mbytes
Step Press Volume Temp 
       0    -4.956681    552.48619          0.9 
    2000   -1.8050475    552.48619   0.48627449 
    4000   -1.9091605    552.48619   0.50503476 
    6000   -1.8445473    552.48619   0.50005582 
    8000   -1.6396627    552.48619   0.48926653 
   10000   -1.5627683    552.48619     0.492091 
   12000   -1.4525129    552.48619    0.4916178 
   14000    -1.383104    552.48619   0.49100521 
   16000    -1.524075    552.48619   0.52212308 
   18000   -1.4311822    552.48619    0.5247074 
   20000   -1.5522956    552.48619   0.55333265 
   22000    -1.323764    552.48619   0.54007788 
   24000   -1.1994516    552.48619   0.54629274 
   26000   -1.1531315    552.48619   0.55116745 
   28000   -1.0776418    552.48619   0.55988529 
   30000   -1.0082669    552.48619   0.56442754 
   32000    -1.208049    552.48619   0.61458313 
   34000   -1.0339981    552.48619   0.60967169 
   36000  -0.79947191    552.48619   0.59073825 
   38000  -0.49062243    552.48619   0.56527229 
   40000  -0.78162026    552.48619   0.63694359 
   42000  -0.51146702    552.48619   0.60488437 
   44000    -0.560706    552.48619   0.63815123 
   46000  -0.51806457    552.48619   0.65706263 
   48000  -0.16620036    552.48619   0.62709988 
   50000  -0.37656144    552.48619   0.68458302 
   52000  -0.17104018    552.48619   0.66931374 
   54000  -0.30847242    552.48619    0.7029728 
   56000  -0.17387019    552.48619   0.71226128 
   58000  -0.28621839    552.48619   0.75043015 
   60000   0.24932192    552.48619   0.69637693 
   62000  -0.10535302    552.48619   0.77433169 
   64000   0.33954338    552.48619   0.72531454 
   66000  0.090604185    552.48619   0.78325862 
   68000   0.45473857    552.48619   0.74887344 
   70000   0.60336748    552.48619    0.7548505 
   72000   0.78265182    552.48619   0.74612786 
   74000   0.52547487    552.48619   0.79885964 
   76000   0.41409058    552.48619   0.83998008 
   78000   0.54565778    552.48619   0.84403801 
   80000   0.78860355    552.48619   0.82585605 
   82000   0.99982723    552.48619   0.81312952 
   84000    1.1155032    552.48619   0.82451411 
   86000    1.1048158    552.48619   0.84122548 
   88000   0.95512098    552.48619   0.88362851 
   90000   0.79227245    552.48619    0.9158647 
   92000   0.91884626    552.48619   0.91580016 
   94000    1.1176579    552.48619   0.91752083 
   96000    1.4414723    552.48619   0.86764388 
   98000    1.4602847    552.48619   0.89210464 
  100000     1.570603    552.48619   0.88051969 
  102000    1.0900849    552.48619   0.97293006 
  104000     1.618227    552.48619   0.90229014 
  106000    1.5404565    552.48619   0.92969855 
  108000    1.4279944    552.48619   0.96026627 
  110000    1.6602602    552.48619   0.94013672 
  112000    1.8914838    552.48619   0.90767718 
  114000    1.6930374    552.48619   0.95278105 
  116000    2.0764766    552.48619   0.90095459 
  118000    1.3782128    552.48619   0.99757231 
  120000    1.7774485    552.48619    0.9471965 
  122000    1.8767734    552.48619    0.9456078 
  124000    1.5833601    552.48619   0.98623862 
  126000    2.1646971    552.48619   0.91120705 
  128000    1.9405315    552.48619   0.93833766 
  130000    1.7547677    552.48619   0.96785626 
  132000    1.6662417    552.48619   0.97461622 
  134000    1.7404827    552.48619   0.96288113 
  136000     1.650638    552.48619   0.96583887 
  138000    2.0379039    552.48619   0.92427077 
  140000    1.7870189    552.48619   0.93143248 
  142000    1.8910264    552.48619   0.92385291 
  144000    1.8560918    552.48619   0.92112591 
  146000    1.7011108    552.48619   0.92799778 
  148000    1.7614837    552.48619   0.91380172 
  150000    1.2668716    552.48619   0.97069561 
  152000    1.4370386    552.48619   0.94118356 
  154000    1.4526116    552.48619   0.92245825 
  156000    1.3282345    552.48619   0.94511015 
  158000    1.5661893    552.48619   0.87155791 
  160000     1.444329    552.48619   0.89148906 
  162000    1.1758796    552.48619   0.91599666 
  164000    1.0461952    552.48619   0.93652437 
  166000    1.1849282    552.48619   0.89965096 
  168000   0.86773802    552.48619   0.93202157 
  170000    1.0884141    552.48619   0.88606889 
  172000    1.3046439    552.48619   0.84911396 
  174000    1.0373062    552.48619   0.87973854 
  176000   0.81552218    552.48619   0.90231629 
  178000      1.01889    552.48619   0.86492475 
  180000    1.2673839    552.48619   0.83449509 
  182000    1.3208046    552.48619   0.81109479 
  184000   0.92447579    552.48619   0.87612593 
  186000   0.80321296    552.48619   0.88571442 
  188000    1.0317451    552.48619   0.84762494 
  190000    1.1707965    552.48619   0.82805031 
  192000    1.0046356    552.48619   0.85107215 
  194000    1.1214686    552.48619   0.83036443 
  196000   0.91883212    552.48619   0.87648143 
  198000   0.83066773    552.48619   0.88143027 
  200000      0.85529    552.48619   0.89065963 
  202000    1.2152819    552.48619   0.84006219 
  204000    1.1360641    552.48619   0.85124403 
  206000   0.87736745    552.48619    0.8980525 
  208000    1.1971276    552.48619   0.85406177 
  210000    1.2995286    552.48619   0.84376077 
  212000    1.0785855    552.48619   0.88762435 
  214000    1.2292151    552.48619   0.88129345 
  216000    1.3523627    552.48619   0.86390633 
  218000    1.2104356    552.48619   0.89841483 
  220000     1.235791    552.48619   0.90012532 
  222000    1.3802862    552.48619   0.88777591 
  224000    1.5700318    552.48619   0.87515894 
  226000    1.2597532    552.48619   0.92144325 
  228000    1.3794424    552.48619   0.92175496 
  230000    1.2977728    552.48619   0.93554236 
  232000    1.7282573    552.48619   0.88732202 
  234000    1.3917229    552.48619   0.93400191 
  236000    1.3985532    552.48619   0.94702617 
  238000    2.2793564    552.48619   0.83121813 
  240000    1.6154184    552.48619   0.92844092 
  242000    2.0241423    552.48619   0.88229287 
  244000    1.5763591    552.48619   0.93658754 
  246000    1.4945016    552.48619   0.96281845 
  248000    1.6276759    552.48619   0.95216207 
  250000    1.5477635    552.48619   0.96144599 
  252000    1.7683909    552.48619   0.93225359 
  254000    1.4162414    552.48619   0.98146161 
  256000    1.8148941    552.48619   0.92486452 
  258000    1.5682843    552.48619   0.96865892 
  260000    1.7644876    552.48619    0.9408209 
  262000    1.9346461    552.48619   0.90672715 
  264000    1.7661188    552.48619   0.93135836 
  266000    1.4184133    552.48619   0.99554995 
  268000    1.7775161    552.48619   0.91988498 
  270000    1.4227548    552.48619   0.97042135 
  272000    1.5699065    552.48619   0.94062594 
  274000    1.8448419    552.48619   0.88692425 
  276000    1.8911755    552.48619   0.87885027 
  278000    1.3976197    552.48619   0.94063803 
  280000    1.3870293    552.48619   0.93027675 
  282000      1.64536    552.48619   0.87689794 
  284000    1.4713061    552.48619   0.89859628 
  286000    1.4221407    552.48619   0.90282474 
  288000    1.3072261    552.48619   0.90402917 
  290000      1.22491    552.48619   0.90605745 
  292000    1.0712447    552.48619   0.92049575 
  294000    1.3377303    552.48619   0.87128489 
  296000    1.3784213    552.48619   0.86730841 
  298000    1.4258841    552.48619   0.84179761 
  300000    1.0747136    552.48619   0.89338858 
  302000     1.238569    552.48619   0.85672941 
  304000   0.96628471    552.48619   0.89278487 
  306000   0.80404853    552.48619   0.90370836 
  308000    1.0945727    552.48619   0.86593018 
  310000    1.0078407    552.48619   0.86551396 
  312000   0.79676812    552.48619   0.89802001 
  314000    1.3038092    552.48619   0.83200394 
  316000   0.87974072    552.48619   0.87923092 
  318000   0.87887564    552.48619   0.88511574 
  320000    1.2176427    552.48619   0.84552842 
  322000   0.84826974    552.48619   0.88375378 
  324000   0.90819455    552.48619   0.88250737 
  326000    1.1118185    552.48619   0.85243458 
  328000    1.0785124    552.48619   0.87251473 
  330000    1.1857687    552.48619   0.84661748 
  332000    1.2588677    552.48619   0.84999234 
  334000   0.99912927    552.48619   0.89320163 
  336000    1.3119719    552.48619   0.86484351 
  338000    1.2399494    552.48619   0.86656274 
  340000    1.1685972    552.48619    0.8915886 
  342000      1.38415    552.48619   0.88117428 
  344000   0.99709144    552.48619   0.93478531 
  346000    1.4494173    552.48619   0.87348816 
  348000    1.6283297    552.48619   0.85214676 
  350000    1.3334281    552.48619   0.91141987 
  352000     1.487225    552.48619   0.88740074 
  354000    1.4148373    552.48619   0.90505675 
  356000    1.6365921    552.48619   0.88100588 
  358000    1.4533058    552.48619   0.90708354 
  360000    1.4544368    552.48619   0.91792298 
  362000    1.4622976    552.48619   0.92606949 
  364000    1.6735992    552.48619   0.90320766 
  366000    1.9035758    552.48619   0.87273908 
  368000    1.6763967    552.48619   0.90386571 
  370000    1.7234455    552.48619   0.89133441 
  372000    1.4130802    552.48619   0.94469663 
  374000    1.5174941    552.48619   0.92965425 
  376000    1.6592824    552.48619   0.91158962 
  378000    1.7407084    552.48619   0.90434667 
  380000    1.5604322    552.48619   0.92804907 
  382000    1.7002595    552.48619   0.90344316 
  384000    1.5367235    552.48619   0.92911303 
  386000    1.2858041    552.48619   0.96125396 
  388000    1.3840514    552.48619   0.95073494 
  390000    1.5995699    552.48619   0.91145253 
  392000    1.5505701    552.48619   0.91460496 
  394000    1.0243621    552.48619   0.99416259 
  396000    1.3932847    552.48619    0.9276917 
  398000     1.217243    552.48619   0.95240819 
  400000    1.2773035    552.48619   0.93277176 
  402000    1.4202202    552.48619   0.90945744 
  404000    1.2749083    552.48619   0.93022208 
  406000    1.2811296    552.48619   0.90882856 
  408000    1.4229469    552.48619   0.90039335 
  410000    1.3164513    552.48619     0.886424 
  412000    1.3737909    552.48619   0.88486701 
  414000    1.2293865    552.48619   0.90298662 
  416000    1.2636912    552.48619   0.88153171 
  418000    1.3335027    552.48619   0.86793323 
  420000    1.1498185    552.48619   0.89473845 
  422000    1.4104332    552.48619   0.84358969 
  424000    1.2337423    552.48619    0.8732116 
  426000    1.0916268    552.48619   0.88367764 
  428000    1.0709788    552.48619   0.88184812 
  430000    1.3520649    552.48619   0.84510274 
  432000    1.1601508    552.48619   0.87755417 
  434000   0.98843133    552.48619    0.8912518 
  436000     1.284683    552.48619   0.84411236 
  438000    1.2929886    552.48619   0.84800251 
  440000    1.3136393    552.48619   0.84524005 
  442000    1.3423352    552.48619   0.83643642 
  444000   0.93898845    552.48619   0.89014921 
  446000    1.0879353    552.48619   0.87910778 
  448000    1.3990583    552.48619   0.84148075 
  450000   0.98319444    552.48619   0.89254507 
  452000    1.0857637    552.48619   0.88239001 
  454000    1.0887604    552.48619    0.8852364 
  456000    1.0659202    552.48619   0.90228064 
  458000    1.3478965    552.48619    0.8656177 
  460000    1.2675439    552.48619   0.88564919 
  462000    1.0718871    552.48619   0.91999665 
  464000    1.2503993    552.48619   0.90005656 
  466000    1.4453604    552.48619   0.88924253 
  468000    1.1272186    552.48619   0.93940722 
  470000    1.3459635    552.48619   0.91766634 
  472000    1.4783567    552.48619    0.8975628 
  474000    1.9353484    552.48619   0.83796429 
  476000    1.3771344    552.48619   0.93419201 
  478000    1.2512646    552.48619   0.95094633 
  480000    1.4259116    552.48619     0.933971 
  482000    1.3790925    552.48619    0.9350226 
  484000    1.8333027    552.48619   0.87102416 
  486000    1.3979056    552.48619    0.9370367 
  488000    1.3938834    552.48619   0.94556472 
  490000    1.5451431    552.48619   0.91546611 
  492000     1.577128    552.48619   0.90574286 
  494000    1.5164498    552.48619   0.92326962 
  496000    1.6747637    552.48619   0.89138346 
  498000    1.2156423    552.48619   0.95909699 
  500000    1.8234439    552.48619   0.86450994 
Loop time of 322.849 on 1 procs for 500000 steps with 500 atoms

Performance: 669043.566 tau/day, 1548.712 timesteps/s
85.1% CPU use with 1 MPI tasks x no OpenMP threads

MPI task timing breakdown:
Section |  min time  |  avg time  |  max time  |%varavg| %total
---------------------------------------------------------------
Pair    | 258.78     | 258.78     | 258.78     |   0.0 | 80.16
Neigh   | 43.226     | 43.226     | 43.226     |   0.0 | 13.39
Comm    | 10.537     | 10.537     | 10.537     |   0.0 |  3.26
Output  | 0.047911   | 0.047911   | 0.047911   |   0.0 |  0.01
Modify  | 8.2521     | 8.2521     | 8.2521     |   0.0 |  2.56
Other   |            | 2.002      |            |       |  0.62

Nlocal:    500 ave 500 max 500 min
Histogram: 1 0 0 0 0 0 0 0 0 0
Nghost:    1951 ave 1951 max 1951 min
Histogram: 1 0 0 0 0 0 0 0 0 0
Neighs:    19923 ave 19923 max 19923 min
Histogram: 1 0 0 0 0 0 0 0 0 0

Total # of neighbors = 19923
Ave neighs/atom = 39.846
Neighbor list builds = 25000
Dangerous builds not checked
Total wall time: 0:05:22
