LAMMPS (19 Oct 2016)
# equation of state for LJ

variable temp equal 0.9
variable rho  equal 0.77

units lj
atom_style atomic

lattice    fcc ${rho}
lattice    fcc 0.77
Lattice spacing in x,y,z = 1.7319 1.7319 1.7319
region box block 0 5 0 5 0 5
create_box 1 box
Created orthogonal box = (0 0 0) to (8.65951 8.65951 8.65951)
  1 by 1 by 1 MPI processor grid
create_atoms 1 box
Created 500 atoms
mass       1 1.0

pair_style lj/cut 2.5
pair_coeff 1 1 1.0 1.0 2.5

velocity   all create ${temp} 87287
velocity   all create 0.9 87287

neighbor   0.3 bin
neigh_modify every 20 delay 0 check no

fix        1 all nvt temp ${temp} ${temp} 100
fix        1 all nvt temp 0.9 ${temp} 100
fix        1 all nvt temp 0.9 0.9 100
dump       1 all custom 70000 dump_t${temp}_r${rho}.lammpstrj id type x y z
dump       1 all custom 70000 dump_t0.9_r${rho}.lammpstrj id type x y z
dump       1 all custom 70000 dump_t0.9_r0.77.lammpstrj id type x y z
thermo     2000
thermo_style  custom step press vol temp
thermo_modify flush yes

run 500000
Neighbor list info ...
  1 neighbor list requests
  update every 20 steps, delay 0 steps, check no
  max neighbors/atom: 2000, page size: 100000
  master list distance cutoff = 2.8
  ghost atom cutoff = 2.8
  binsize = 1.4 -> bins = 7 7 7
Memory usage per processor = 3.32306 Mbytes
Step Press Volume Temp 
       0    -5.366349    649.35065          0.9 
    2000   -1.1458966    649.35065   0.48980729 
    4000   -1.1100796    649.35065   0.46616123 
    6000    -1.238634    649.35065   0.54059993 
    8000   -1.1387136    649.35065    0.5001246 
   10000   -1.1225365    649.35065   0.51477388 
   12000   -1.1627901    649.35065   0.51812453 
   14000  -0.85193546    649.35065   0.53138129 
   16000    -1.134353    649.35065    0.5355086 
   18000   -1.0636823    649.35065   0.54526378 
   20000  -0.68158622    649.35065   0.53982729 
   22000  -0.79765876    649.35065    0.5365877 
   24000  -0.85569511    649.35065   0.56788398 
   26000  -0.89603845    649.35065   0.57806083 
   28000  -0.80922211    649.35065   0.58368038 
   30000  -0.87402319    649.35065   0.60874553 
   32000  -0.52971125    649.35065   0.59004436 
   34000  -0.49961459    649.35065   0.61459907 
   36000  -0.70727701    649.35065    0.6433936 
   38000   -0.5275495    649.35065   0.63828281 
   40000  -0.41588333    649.35065   0.63976469 
   42000  -0.21716065    649.35065   0.64454214 
   44000  -0.32432618    649.35065   0.67272548 
   46000  -0.30369479    649.35065     0.691795 
   48000  -0.26637066    649.35065   0.69393274 
   50000  -0.17497628    649.35065   0.71799621 
   52000 -0.039215798    649.35065    0.7109578 
   54000 -0.099465118    649.35065    0.7319509 
   56000  -0.05420014    649.35065   0.73698867 
   58000 -0.023248646    649.35065   0.74800006 
   60000   0.16315184    649.35065   0.76295126 
   62000   0.13261244    649.35065   0.78621115 
   64000   0.22521561    649.35065   0.78134042 
   66000   0.20070002    649.35065   0.79720739 
   68000   0.24399418    649.35065   0.82505612 
   70000   0.52062507    649.35065   0.80566738 
   72000   0.30787314    649.35065   0.84612632 
   74000   0.37198764    649.35065   0.86681376 
   76000   0.53805611    649.35065   0.84892561 
   78000   0.56281821    649.35065   0.86799466 
   80000    0.7163459    649.35065   0.85832397 
   82000   0.76140409    649.35065    0.8719613 
   84000   0.86474588    649.35065   0.88090136 
   86000   0.58962518    649.35065   0.92640727 
   88000   0.57375939    649.35065   0.94659069 
   90000   0.85177048    649.35065   0.90866814 
   92000   0.94772053    649.35065   0.91340236 
   94000    1.0115226    649.35065   0.90626538 
   96000   0.86626226    649.35065   0.93565085 
   98000    1.0748233    649.35065   0.92021617 
  100000   0.78620582    649.35065   0.98155032 
  102000    1.2090315    649.35065   0.92474904 
  104000   0.88757659    649.35065   0.97062907 
  106000    1.0514418    649.35065   0.97532924 
  108000    1.1123341    649.35065   0.96153429 
  110000    0.8572775    649.35065     1.007893 
  112000    1.1232624    649.35065   0.94742791 
  114000    1.0821599    649.35065   0.96330673 
  116000     0.898029    649.35065   0.96934588 
  118000   0.92598036    649.35065   0.96105669 
  120000    0.9957113    649.35065   0.97588284 
  122000    1.0592148    649.35065   0.96419408 
  124000   0.99128523    649.35065   0.94817155 
  126000      1.02381    649.35065   0.94253527 
  128000   0.87952849    649.35065   0.94162454 
  130000    1.0633312    649.35065    0.9266696 
  132000    1.0387312    649.35065   0.91322416 
  134000   0.77810807    649.35065   0.94347274 
  136000   0.81049794    649.35065   0.90257417 
  138000   0.71761983    649.35065    0.9168911 
  140000    0.7371126    649.35065   0.90356482 
  142000   0.89542812    649.35065    0.8812436 
  144000   0.66263841    649.35065   0.90378535 
  146000   0.71120022    649.35065   0.87321656 
  148000   0.74248591    649.35065   0.89652858 
  150000   0.60939629    649.35065   0.87685954 
  152000   0.63983309    649.35065   0.86807172 
  154000   0.77489307    649.35065   0.84799847 
  156000    0.7416269    649.35065   0.83772119 
  158000   0.85965726    649.35065   0.83070438 
  160000   0.54696174    649.35065    0.8730679 
  162000   0.60679137    649.35065   0.84127553 
  164000   0.54616071    649.35065   0.85902211 
  166000   0.61604535    649.35065   0.81951396 
  168000   0.60675291    649.35065   0.84156958 
  170000   0.76147663    649.35065   0.81565714 
  172000   0.62640602    649.35065   0.84219215 
  174000   0.76133939    649.35065   0.82623197 
  176000   0.69354594    649.35065   0.86160403 
  178000   0.48996929    649.35065   0.87481258 
  180000   0.54740856    649.35065   0.87428534 
  182000   0.62908083    649.35065   0.87031825 
  184000   0.61195341    649.35065   0.86582569 
  186000     0.694404    649.35065   0.86267816 
  188000   0.67960069    649.35065   0.87699081 
  190000   0.71277147    649.35065   0.89306461 
  192000   0.54885758    649.35065   0.91864651 
  194000   0.67948877    649.35065   0.89409777 
  196000   0.58582262    649.35065    0.9172409 
  198000   0.86177729    649.35065   0.91961414 
  200000   0.73686491    649.35065   0.93233431 
  202000   0.79036954    649.35065   0.90762453 
  204000   0.81873532    649.35065   0.92905412 
  206000    1.0771424    649.35065   0.90427416 
  208000   0.98116377    649.35065   0.90849259 
  210000    1.2215871    649.35065   0.88579029 
  212000   0.95065665    649.35065   0.92644299 
  214000    1.0130925    649.35065   0.91556512 
  216000    0.8368225    649.35065   0.93636796 
  218000    1.0407091    649.35065   0.93309182 
  220000    1.2234818    649.35065   0.88560484 
  222000   0.91356983    649.35065   0.95146773 
  224000   0.96711634    649.35065   0.93141414 
  226000    1.2017378    649.35065   0.90598637 
  228000    1.0030588    649.35065   0.92111964 
  230000   0.84005465    649.35065   0.96112874 
  232000   0.95739276    649.35065   0.93612968 
  234000   0.89379843    649.35065   0.92994629 
  236000   0.92840561    649.35065   0.91421284 
  238000   0.98111329    649.35065   0.91235608 
  240000   0.93133793    649.35065   0.92448405 
  242000   0.76735332    649.35065   0.91553599 
  244000    1.0347078    649.35065   0.88002603 
  246000   0.82234968    649.35065   0.91196102 
  248000    0.9231336    649.35065   0.90054143 
  250000   0.65270247    649.35065   0.91562652 
  252000   0.90794646    649.35065   0.87122919 
  254000    0.7708463    649.35065   0.89090799 
  256000   0.78109702    649.35065   0.89634456 
  258000    0.7528788    649.35065   0.88071432 
  260000   0.85704119    649.35065   0.85890117 
  262000    0.8226867    649.35065   0.86671075 
  264000   0.46220855    649.35065   0.91685015 
  266000   0.51028801    649.35065   0.89903706 
  268000   0.58673935    649.35065    0.8760297 
  270000   0.82479925    649.35065    0.8298415 
  272000   0.73693329    649.35065   0.84292363 
  274000   0.65391905    649.35065   0.86910417 
  276000   0.61541358    649.35065    0.8649978 
  278000   0.51328025    649.35065   0.85984591 
  280000   0.42550787    649.35065   0.87756483 
  282000    0.6295556    649.35065   0.86252208 
  284000   0.60979255    649.35065   0.86325106 
  286000   0.60335904    649.35065   0.87862167 
  288000   0.61941669    649.35065   0.86679544 
  290000   0.69003527    649.35065   0.87599107 
  292000   0.46698429    649.35065   0.90534973 
  294000   0.99790811    649.35065   0.84278146 
  296000   0.77050288    649.35065   0.87224598 
  298000   0.68929697    649.35065   0.89755157 
  300000   0.73471526    649.35065   0.88611793 
  302000   0.84289666    649.35065   0.89095175 
  304000   0.47554852    649.35065   0.93592556 
  306000   0.96688897    649.35065   0.87188072 
  308000   0.85907366    649.35065   0.89369014 
  310000   0.70766829    649.35065   0.92858237 
  312000   0.63896299    649.35065   0.92052947 
  314000   0.95784017    649.35065    0.9085923 
  316000   0.83001113    649.35065   0.90959522 
  318000    0.7386048    649.35065   0.93708679 
  320000    1.1158903    649.35065   0.89058642 
  322000   0.81537399    649.35065   0.94307143 
  324000   0.92908486    649.35065   0.92657847 
  326000   0.98789208    649.35065   0.92006626 
  328000    1.2416667    649.35065   0.88094222 
  330000   0.83194479    649.35065   0.92860809 
  332000     1.157255    649.35065   0.90428957 
  334000   0.74868063    649.35065   0.95415697 
  336000   0.95842991    649.35065   0.91334845 
  338000   0.74243934    649.35065   0.95019607 
  340000   0.97860221    649.35065   0.91797611 
  342000   0.85148889    649.35065   0.93365135 
  344000   0.95414751    649.35065   0.92154647 
  346000    1.0622279    649.35065   0.89601958 
  348000   0.83585478    649.35065   0.93816517 
  350000    1.0761778    649.35065    0.9009668 
  352000     0.742401    649.35065   0.94548081 
  354000    1.0046456    649.35065   0.88597561 
  356000    1.0391211    649.35065   0.88983883 
  358000   0.89754347    649.35065   0.88709315 
  360000   0.73926282    649.35065   0.90252351 
  362000   0.71022413    649.35065   0.90829834 
  364000   0.82403252    649.35065   0.88441954 
  366000   0.61350205    649.35065   0.90758975 
  368000   0.89952166    649.35065   0.86845319 
  370000   0.52573239    649.35065   0.88582437 
  372000    0.6893551    649.35065   0.88904383 
  374000   0.73372022    649.35065   0.86791253 
  376000   0.70054108    649.35065   0.87343936 
  378000   0.60662264    649.35065   0.86010515 
  380000   0.71584872    649.35065   0.85461892 
  382000   0.46812704    649.35065   0.89011074 
  384000   0.73362079    649.35065   0.88106922 
  386000   0.67733427    649.35065   0.85873484 
  388000   0.45707238    649.35065   0.89044078 
  390000   0.45665022    649.35065   0.88570789 
  392000   0.62019376    649.35065   0.87901325 
  394000   0.52112112    649.35065   0.89684981 
  396000     0.691991    649.35065   0.86329744 
  398000    0.5509622    649.35065   0.88183122 
  400000   0.55407358    649.35065   0.87388347 
  402000   0.57947784    649.35065   0.89326337 
  404000   0.62863917    649.35065    0.8904508 
  406000   0.52236534    649.35065   0.89891264 
  408000    1.0439237    649.35065   0.85095113 
  410000   0.95092241    649.35065    0.8489882 
  412000     1.005062    649.35065   0.84959984 
  414000   0.80454083    649.35065   0.90929676 
  416000   0.91493952    649.35065   0.89604389 
  418000   0.55330364    649.35065   0.93831976 
  420000   0.67621009    649.35065   0.95603004 
  422000    0.7482549    649.35065   0.93132305 
  424000   0.95471853    649.35065   0.90467144 
  426000   0.69037269    649.35065    0.9581328 
  428000   0.89377531    649.35065   0.91025556 
  430000   0.93290896    649.35065   0.91024951 
  432000    1.1252941    649.35065   0.90647582 
  434000    1.1090826    649.35065   0.90311376 
  436000   0.93928741    649.35065   0.93011181 
  438000   0.98345823    649.35065   0.91991268 
  440000    1.0107612    649.35065   0.88874673 
  442000   0.90862022    649.35065   0.92560003 
  444000   0.91641893    649.35065   0.91831003 
  446000   0.91909229    649.35065   0.89583374 
  448000   0.93981769    649.35065   0.90635141 
  450000    0.9329273    649.35065   0.90700552 
  452000   0.84689698    649.35065   0.90715698 
  454000   0.87266479    649.35065   0.89914012 
  456000    0.9242727    649.35065   0.89297404 
  458000   0.77109254    649.35065    0.9068063 
  460000   0.90834483    649.35065   0.90172074 
  462000   0.58303786    649.35065   0.94326947 
  464000   0.56408384    649.35065   0.92697605 
  466000   0.70854742    649.35065    0.8881293 
  468000    0.6372747    649.35065   0.89761537 
  470000   0.68611548    649.35065    0.8830375 
  472000   0.85527106    649.35065   0.86676243 
  474000   0.73292493    649.35065   0.88140291 
  476000   0.76032328    649.35065   0.83572817 
  478000   0.65522121    649.35065    0.8402207 
  480000   0.65202589    649.35065   0.83105341 
  482000   0.59837071    649.35065   0.84053751 
  484000   0.68132368    649.35065   0.83562086 
  486000    0.4332802    649.35065   0.84419918 
  488000   0.40800033    649.35065   0.83735459 
  490000   0.30139379    649.35065   0.84415483 
  492000    0.3652173    649.35065   0.82174123 
  494000   0.48375723    649.35065   0.81238343 
  496000   0.39035117    649.35065   0.84062905 
  498000   0.75924541    649.35065    0.7811596 
  500000   0.27067872    649.35065   0.83788884 
Loop time of 176.01 on 1 procs for 500000 steps with 500 atoms

Performance: 1227199.730 tau/day, 2840.740 timesteps/s
94.7% CPU use with 1 MPI tasks x no OpenMP threads

MPI task timing breakdown:
Section |  min time  |  avg time  |  max time  |%varavg| %total
---------------------------------------------------------------
Pair    | 142.86     | 142.86     | 142.86     |   0.0 | 81.17
Neigh   | 21.172     | 21.172     | 21.172     |   0.0 | 12.03
Comm    | 5.9667     | 5.9667     | 5.9667     |   0.0 |  3.39
Output  | 0.027372   | 0.027372   | 0.027372   |   0.0 |  0.02
Modify  | 4.8755     | 4.8755     | 4.8755     |   0.0 |  2.77
Other   |            | 1.108      |            |       |  0.63

Nlocal:    500 ave 500 max 500 min
Histogram: 1 0 0 0 0 0 0 0 0 0
Nghost:    1706 ave 1706 max 1706 min
Histogram: 1 0 0 0 0 0 0 0 0 0
Neighs:    17202 ave 17202 max 17202 min
Histogram: 1 0 0 0 0 0 0 0 0 0

Total # of neighbors = 17202
Ave neighs/atom = 34.404
Neighbor list builds = 25000
Dangerous builds not checked
Total wall time: 0:02:56
