LAMMPS (19 Oct 2016)
# equation of state for LJ

variable temp equal 0.9
variable rho  equal 0.82

units lj
atom_style atomic

lattice    fcc ${rho}
lattice    fcc 0.82
Lattice spacing in x,y,z = 1.69596 1.69596 1.69596
region box block 0 5 0 5 0 5
create_box 1 box
Created orthogonal box = (0 0 0) to (8.4798 8.4798 8.4798)
  1 by 1 by 1 MPI processor grid
create_atoms 1 box
Created 500 atoms
mass       1 1.0

pair_style lj/cut 2.5
pair_coeff 1 1 1.0 1.0 2.5

velocity   all create ${temp} 87287
velocity   all create 0.9 87287

neighbor   0.3 bin
neigh_modify every 20 delay 0 check no

fix        1 all nvt temp ${temp} ${temp} 100
fix        1 all nvt temp 0.9 ${temp} 100
fix        1 all nvt temp 0.9 0.9 100
dump       1 all custom 70000 dump_t${temp}_r${rho}.lammpstrj id type x y z
dump       1 all custom 70000 dump_t0.9_r${rho}.lammpstrj id type x y z
dump       1 all custom 70000 dump_t0.9_r0.82.lammpstrj id type x y z
thermo     2000
thermo_style  custom step press vol temp
thermo_modify flush yes

run 500000
Neighbor list info ...
  1 neighbor list requests
  update every 20 steps, delay 0 steps, check no
  max neighbors/atom: 2000, page size: 100000
  master list distance cutoff = 2.8
  ghost atom cutoff = 2.8
  binsize = 1.4 -> bins = 7 7 7
Memory usage per processor = 3.32306 Mbytes
Step Press Volume Temp 
       0   -5.5164797     609.7561          0.9 
    2000   -2.1733968     609.7561   0.50763175 
    4000   -1.7571819     609.7561   0.47374259 
    6000   -1.8942913     609.7561   0.51341918 
    8000   -1.3823461     609.7561   0.45515557 
   10000   -1.2836248     609.7561   0.45730335 
   12000   -1.2456687     609.7561   0.45937083 
   14000   -1.0979931     609.7561   0.44906704 
   16000   -1.0768411     609.7561    0.4623312 
   18000  -0.94537013     609.7561   0.46784908 
   20000  -0.80457896     609.7561   0.45167711 
   22000  -0.72021478     609.7561   0.47250226 
   24000  -0.94922486     609.7561   0.49642515 
   26000  -0.76788089     609.7561     0.511298 
   28000  -0.87383782     609.7561   0.52354196 
   30000   -0.8121727     609.7561   0.52119472 
   32000  -0.79652366     609.7561    0.5458945 
   34000  -0.65747168     609.7561    0.5472214 
   36000  -0.47193844     609.7561   0.54469666 
   38000  -0.58444671     609.7561   0.55988299 
   40000   -0.6205842     609.7561   0.58477227 
   42000  -0.26747925     609.7561   0.57364352 
   44000  -0.38043865     609.7561   0.59614972 
   46000  -0.34461466     609.7561   0.60817742 
   48000  -0.14561663     609.7561    0.6259673 
   50000  -0.10717593     609.7561   0.63286121 
   52000 -0.074519126     609.7561   0.64411952 
   54000  -0.03730837     609.7561   0.64844136 
   56000  0.056741822     609.7561   0.66497264 
   58000  0.011507752     609.7561   0.68378773 
   60000    0.3018249     609.7561    0.6742211 
   62000   0.33024388     609.7561    0.6892404 
   64000   0.20954856     609.7561   0.71855619 
   66000   0.32073865     609.7561   0.73814343 
   68000   0.52146185     609.7561   0.72898763 
   70000    0.6378136     609.7561   0.74141528 
   72000    0.8180436     609.7561   0.72495619 
   74000   0.72546572     609.7561    0.7711547 
   76000   0.64641212     609.7561    0.7964237 
   78000   0.77635493     609.7561   0.81158322 
   80000   0.95217656     609.7561   0.80234639 
   82000    1.3317773     609.7561   0.77728135 
   84000    1.0778921     609.7561   0.80994743 
   86000    1.1993904     609.7561   0.82090059 
   88000    1.5359089     609.7561    0.8080392 
   90000    1.1125799     609.7561   0.87036808 
   92000    1.4056828     609.7561   0.84346546 
   94000    1.2802396     609.7561   0.89873095 
   96000    1.5414375     609.7561   0.87997475 
   98000    1.6142734     609.7561   0.88016481 
  100000    1.4567162     609.7561   0.92647022 
  102000    1.7229066     609.7561   0.90776891 
  104000    1.7095428     609.7561   0.91785009 
  106000    1.6679981     609.7561   0.91987738 
  108000    1.8646737     609.7561   0.91019185 
  110000    1.6866871     609.7561    0.9426684 
  112000    1.6850482     609.7561   0.97445693 
  114000    1.6123443     609.7561   0.96617635 
  116000     1.568714     609.7561   0.99325698 
  118000    2.0182518     609.7561   0.94027628 
  120000    1.9776735     609.7561   0.93745959 
  122000    1.8302435     609.7561   0.96471211 
  124000    2.2589068     609.7561   0.91007703 
  126000    1.9574983     609.7561   0.96834067 
  128000    1.9468087     609.7561   0.96047915 
  130000    1.7440783     609.7561   0.98430845 
  132000    1.8374373     609.7561   0.96180036 
  134000    1.6371657     609.7561    0.9906233 
  136000    1.9556239     609.7561   0.94630491 
  138000    1.8245206     609.7561   0.94412063 
  140000    1.8773088     609.7561   0.92173228 
  142000    1.7749494     609.7561   0.93773068 
  144000    1.8241028     609.7561   0.90860724 
  146000    1.5445765     609.7561   0.93332911 
  148000    1.5751672     609.7561   0.93993523 
  150000    1.7414264     609.7561   0.91886863 
  152000    1.6096535     609.7561   0.91238827 
  154000    1.3652267     609.7561   0.93168104 
  156000    1.6676358     609.7561    0.8604157 
  158000    1.4936686     609.7561    0.8792073 
  160000    1.2826318     609.7561   0.90397195 
  162000    1.3390408     609.7561   0.87134795 
  164000    1.2979828     609.7561   0.86769075 
  166000     1.548209     609.7561   0.84072549 
  168000    1.2708187     609.7561   0.86256019 
  170000    1.2250499     609.7561   0.87182608 
  172000    1.5006821     609.7561   0.82074437 
  174000    1.0101034     609.7561   0.89505938 
  176000    1.4243236     609.7561   0.84018875 
  178000    1.2455739     609.7561   0.84623797 
  180000    1.2620016     609.7561   0.84340452 
  182000    1.5067911     609.7561    0.8049359 
  184000   0.92390876     609.7561   0.89351512 
  186000    1.0745427     609.7561   0.86242993 
  188000    1.3556116     609.7561   0.83906905 
  190000    1.1074577     609.7561   0.86271313 
  192000    1.5035905     609.7561   0.80542479 
  194000     1.050933     609.7561   0.89099619 
  196000    1.4228196     609.7561   0.83502873 
  198000    1.1906403     609.7561    0.8859418 
  200000    1.3738142     609.7561   0.87161054 
  202000    1.2837755     609.7561   0.87916988 
  204000    1.3350263     609.7561   0.90001602 
  206000    1.2245696     609.7561   0.90401176 
  208000    1.4470309     609.7561    0.8871359 
  210000    1.4460832     609.7561   0.88988898 
  212000     1.327331     609.7561   0.93031782 
  214000    1.7361179     609.7561   0.87837517 
  216000    1.5823352     609.7561   0.89672821 
  218000     1.753811     609.7561   0.88516443 
  220000    1.7578401     609.7561   0.90303635 
  222000    1.5945579     609.7561   0.91731925 
  224000    1.7862345     609.7561   0.92138494 
  226000    1.8526369     609.7561   0.89528454 
  228000    1.7987208     609.7561   0.92619721 
  230000    1.7939873     609.7561    0.9439274 
  232000    1.4353004     609.7561    0.9691933 
  234000    1.7339181     609.7561   0.95379443 
  236000    1.7008515     609.7561   0.95313768 
  238000    1.6213393     609.7561   0.96337832 
  240000    1.9545779     609.7561   0.91243312 
  242000    1.9605761     609.7561   0.92508074 
  244000    1.7788279     609.7561   0.94648729 
  246000    1.6933721     609.7561   0.94901332 
  248000    1.6796251     609.7561   0.94649219 
  250000    1.5373815     609.7561   0.96267484 
  252000    1.6176929     609.7561   0.94332248 
  254000    1.7564303     609.7561   0.90989765 
  256000    1.6017003     609.7561   0.93042569 
  258000    1.6773892     609.7561   0.90360501 
  260000    1.8451196     609.7561   0.88193613 
  262000    1.6208369     609.7561   0.89873663 
  264000    1.5156636     609.7561   0.91330599 
  266000    1.4122213     609.7561   0.92596025 
  268000     1.544177     609.7561   0.89485486 
  270000    1.4662499     609.7561   0.89465933 
  272000    1.6003505     609.7561   0.87178434 
  274000    1.4222634     609.7561   0.89861218 
  276000    1.6552607     609.7561   0.84404308 
  278000    1.3947569     609.7561    0.8837252 
  280000    1.4015541     609.7561   0.89491307 
  282000    1.5404911     609.7561   0.85076591 
  284000    1.4757753     609.7561   0.84267182 
  286000    1.4132294     609.7561   0.85105242 
  288000    1.4239374     609.7561   0.84182332 
  290000     1.446636     609.7561   0.85406708 
  292000    1.3134686     609.7561   0.86153029 
  294000    1.3070436     609.7561   0.86628962 
  296000    1.2562514     609.7561   0.86807634 
  298000    1.2279523     609.7561   0.87823175 
  300000    1.3513113     609.7561     0.861852 
  302000    1.4902532     609.7561   0.84075384 
  304000    1.4891991     609.7561   0.84191758 
  306000    1.1392712     609.7561   0.88595812 
  308000    1.4200516     609.7561   0.86198879 
  310000    1.3551666     609.7561    0.8646778 
  312000    1.3717529     609.7561     0.875458 
  314000    1.4524872     609.7561   0.87912787 
  316000    1.4981726     609.7561   0.87416156 
  318000    1.4357215     609.7561   0.87159999 
  320000    1.4646338     609.7561   0.87779315 
  322000    1.3448876     609.7561   0.90135681 
  324000    1.7566923     609.7561   0.85944226 
  326000    1.2968132     609.7561   0.92824871 
  328000    1.7534201     609.7561   0.88173497 
  330000    1.7564863     609.7561   0.87859012 
  332000    1.6021462     609.7561   0.89399761 
  334000     1.700286     609.7561   0.89320925 
  336000    1.5856611     609.7561   0.90962136 
  338000    1.7275679     609.7561   0.91750106 
  340000    1.4636118     609.7561   0.95937717 
  342000    1.7514078     609.7561   0.91379508 
  344000    1.8237325     609.7561    0.9196872 
  346000    1.7629618     609.7561   0.92627519 
  348000    1.4263435     609.7561   0.96315268 
  350000    1.6210733     609.7561   0.94772261 
  352000      1.56367     609.7561    0.9436292 
  354000    1.8061031     609.7561   0.92382618 
  356000    1.7075309     609.7561   0.93297639 
  358000    1.5449207     609.7561   0.95888281 
  360000    1.5313836     609.7561   0.96049604 
  362000    1.6925695     609.7561    0.9200219 
  364000     1.697497     609.7561    0.9258168 
  366000    1.7437029     609.7561   0.91807308 
  368000    1.2909293     609.7561   0.97175352 
  370000    1.6197771     609.7561    0.9153957 
  372000     1.609464     609.7561   0.91334469 
  374000    1.8406798     609.7561   0.88949429 
  376000    1.5504044     609.7561    0.9043448 
  378000    1.4300075     609.7561    0.9112263 
  380000    1.2864116     609.7561   0.93842461 
  382000    1.3464167     609.7561   0.92035466 
  384000    1.4412812     609.7561   0.91454448 
  386000    1.3740469     609.7561   0.89986527 
  388000    1.3710139     609.7561    0.9026975 
  390000    1.6835496     609.7561   0.84715187 
  392000    1.3497951     609.7561   0.88084777 
  394000    1.4211056     609.7561   0.87358054 
  396000    1.5161845     609.7561   0.85028806 
  398000    1.4059035     609.7561   0.87246008 
  400000    1.1740443     609.7561   0.89857171 
  402000    1.3368189     609.7561    0.8790893 
  404000    1.2883938     609.7561   0.86799483 
  406000     1.528547     609.7561   0.83137947 
  408000    1.4081537     609.7561   0.85483673 
  410000    1.2123302     609.7561   0.87545012 
  412000    1.3472853     609.7561   0.86435588 
  414000    1.3894445     609.7561   0.86135422 
  416000    1.4590013     609.7561   0.86692837 
  418000    1.3521209     609.7561   0.87845601 
  420000    1.4489227     609.7561   0.87064727 
  422000    1.4255763     609.7561   0.87766505 
  424000    1.4115297     609.7561   0.85954974 
  426000    1.4738665     609.7561   0.88467799 
  428000    1.3810775     609.7561   0.89664275 
  430000    1.3377348     609.7561   0.91010787 
  432000    1.6449004     609.7561   0.86117915 
  434000    1.5214927     609.7561   0.89493526 
  436000    1.4057373     609.7561   0.91375444 
  438000    1.4514127     609.7561   0.91123541 
  440000    1.7303551     609.7561   0.87492556 
  442000    1.6585982     609.7561   0.89429518 
  444000    1.3760659     609.7561    0.9165494 
  446000    1.6571125     609.7561   0.89786857 
  448000    1.5865917     609.7561   0.90713533 
  450000    1.6047432     609.7561   0.93125776 
  452000    1.6458537     609.7561   0.93363705 
  454000    1.8686888     609.7561   0.88053484 
  456000    1.6267753     609.7561   0.92237955 
  458000    1.7460097     609.7561   0.90462903 
  460000    1.8053477     609.7561   0.89543458 
  462000    1.5491881     609.7561   0.93998206 
  464000    1.4951988     609.7561   0.95674485 
  466000    1.7150078     609.7561   0.90672941 
  468000    1.7003114     609.7561   0.93386156 
  470000    1.5932836     609.7561   0.94183961 
  472000    1.7122712     609.7561   0.93580893 
  474000     1.505903     609.7561   0.93787373 
  476000    1.9691151     609.7561   0.88516325 
  478000      1.64059     609.7561   0.92619482 
  480000    1.5930194     609.7561   0.91926041 
  482000    1.7662691     609.7561   0.91331691 
  484000    1.4471556     609.7561   0.92755569 
  486000    1.5206244     609.7561    0.9244429 
  488000    1.6431718     609.7561   0.90624003 
  490000    1.5848936     609.7561   0.89113133 
  492000    1.3435697     609.7561   0.90591366 
  494000    1.4875197     609.7561   0.89519447 
  496000    1.4977793     609.7561   0.87826795 
  498000    1.4245985     609.7561   0.88938429 
  500000    1.6319479     609.7561   0.86236443 
Loop time of 170.265 on 1 procs for 500000 steps with 500 atoms

Performance: 1268612.266 tau/day, 2936.602 timesteps/s
91.4% CPU use with 1 MPI tasks x no OpenMP threads

MPI task timing breakdown:
Section |  min time  |  avg time  |  max time  |%varavg| %total
---------------------------------------------------------------
Pair    | 138.88     | 138.88     | 138.88     |   0.0 | 81.57
Neigh   | 19.728     | 19.728     | 19.728     |   0.0 | 11.59
Comm    | 5.8164     | 5.8164     | 5.8164     |   0.0 |  3.42
Output  | 0.033974   | 0.033974   | 0.033974   |   0.0 |  0.02
Modify  | 4.6918     | 4.6918     | 4.6918     |   0.0 |  2.76
Other   |            | 1.114      |            |       |  0.65

Nlocal:    500 ave 500 max 500 min
Histogram: 1 0 0 0 0 0 0 0 0 0
Nghost:    1767 ave 1767 max 1767 min
Histogram: 1 0 0 0 0 0 0 0 0 0
Neighs:    18271 ave 18271 max 18271 min
Histogram: 1 0 0 0 0 0 0 0 0 0

Total # of neighbors = 18271
Ave neighs/atom = 36.542
Neighbor list builds = 25000
Dangerous builds not checked
Total wall time: 0:02:50
