LAMMPS (19 Oct 2016)
# equation of state for LJ

variable temp equal 0.9
variable rho  equal 0.83

units lj
atom_style atomic

lattice    fcc ${rho}
lattice    fcc 0.83
Lattice spacing in x,y,z = 1.68912 1.68912 1.68912
region box block 0 5 0 5 0 5
create_box 1 box
Created orthogonal box = (0 0 0) to (8.4456 8.4456 8.4456)
  1 by 1 by 1 MPI processor grid
create_atoms 1 box
Created 500 atoms
mass       1 1.0

pair_style lj/cut 2.5
pair_coeff 1 1 1.0 1.0 2.5

velocity   all create ${temp} 87287
velocity   all create 0.9 87287

neighbor   0.3 bin
neigh_modify every 20 delay 0 check no

fix        1 all nvt temp ${temp} ${temp} 100
fix        1 all nvt temp 0.9 ${temp} 100
fix        1 all nvt temp 0.9 0.9 100
dump       1 all custom 70000 dump_t${temp}_r${rho}.lammpstrj id type x y z
dump       1 all custom 70000 dump_t0.9_r${rho}.lammpstrj id type x y z
dump       1 all custom 70000 dump_t0.9_r0.83.lammpstrj id type x y z
thermo     2000
thermo_style  custom step press vol temp
thermo_modify flush yes

run 500000
Neighbor list info ...
  1 neighbor list requests
  update every 20 steps, delay 0 steps, check no
  max neighbors/atom: 2000, page size: 100000
  master list distance cutoff = 2.8
  ghost atom cutoff = 2.8
  binsize = 1.4 -> bins = 7 7 7
Memory usage per processor = 3.32306 Mbytes
Step Press Volume Temp 
       0   -5.5101942    602.40964          0.9 
    2000   -2.0699577    602.40964   0.49541799 
    4000   -1.7141306    602.40964   0.46194821 
    6000   -2.0668573    602.40964   0.50708395 
    8000    -1.935961    602.40964   0.49545837 
   10000     -1.66782    602.40964   0.49439361 
   12000   -1.8640943    602.40964   0.50910384 
   14000   -1.5925457    602.40964   0.48855911 
   16000   -1.8917465    602.40964   0.54273868 
   18000   -1.5004397    602.40964   0.51613854 
   20000   -1.5787202    602.40964    0.5372574 
   22000   -1.2789851    602.40964   0.51783322 
   24000    -0.840999    602.40964   0.48482895 
   26000  -0.78040209    602.40964   0.48735026 
   28000  -0.84242883    602.40964   0.51343502 
   30000  -0.69417154    602.40964   0.50601316 
   32000  -0.53472637    602.40964   0.50602427 
   34000  -0.54651212    602.40964   0.53327743 
   36000  -0.50691275    602.40964   0.53281084 
   38000  -0.55613179    602.40964   0.56621993 
   40000  -0.44494792    602.40964   0.56231456 
   42000  -0.46234745    602.40964   0.57619619 
   44000  -0.39757317    602.40964   0.58637211 
   46000  -0.26247187    602.40964   0.59143051 
   48000 -0.051420446    602.40964   0.58841702 
   50000 -0.012161285    602.40964   0.60913113 
   52000  -0.16390461    602.40964    0.6501411 
   54000     0.133796    602.40964    0.6177551 
   56000  0.024255163    602.40964   0.65389008 
   58000   0.29800789    602.40964   0.63915361 
   60000   0.20943958    602.40964     0.671532 
   62000   0.42404892    602.40964   0.66816204 
   64000   0.41050469    602.40964   0.69381255 
   66000   0.47603702    602.40964   0.71217201 
   68000   0.58929545    602.40964   0.69919604 
   70000   0.68794946    602.40964   0.73318339 
   72000   0.71975936    602.40964   0.73481235 
   74000   0.87428971    602.40964   0.73048349 
   76000   0.80115703    602.40964   0.77344873 
   78000    0.7668194    602.40964    0.7820675 
   80000   0.83606551    602.40964   0.80078523 
   82000    1.1679274    602.40964   0.77066899 
   84000    1.1279845    602.40964   0.79909008 
   86000    1.2999882    602.40964   0.80797465 
   88000    1.2848216    602.40964   0.83505537 
   90000    1.3888724    602.40964   0.83698595 
   92000    1.3549222    602.40964   0.86073323 
   94000    1.4453494    602.40964   0.87265096 
   96000    1.2500201    602.40964   0.91145975 
   98000    1.5100451    602.40964   0.89250733 
  100000    1.6800245    602.40964   0.87689184 
  102000    1.5193771    602.40964    0.9219789 
  104000    1.6141919    602.40964    0.9344935 
  106000    1.8412777    602.40964   0.91560367 
  108000    1.8219015    602.40964   0.92093657 
  110000    2.0198024    602.40964   0.89638782 
  112000    1.7016754    602.40964   0.96337926 
  114000    1.6992409    602.40964   0.97559822 
  116000    2.0086694    602.40964   0.94661995 
  118000    1.7461077    602.40964   0.99420833 
  120000    1.9333122    602.40964   0.96362172 
  122000     2.225096    602.40964    0.9390012 
  124000    2.3643436    602.40964   0.92284506 
  126000    2.2255903    602.40964   0.94175184 
  128000    1.8974235    602.40964   0.98775141 
  130000    1.9200055    602.40964   0.99319078 
  132000    1.9815792    602.40964   0.98820706 
  134000    1.9460194    602.40964   0.97243359 
  136000    2.1737466    602.40964   0.94645966 
  138000    1.8619765    602.40964   0.97355538 
  140000    1.9282635    602.40964   0.96794537 
  142000     1.949868    602.40964   0.93892466 
  144000    2.0917825    602.40964   0.92600631 
  146000    2.0866996    602.40964   0.92251851 
  148000    1.7377195    602.40964   0.96845097 
  150000    1.8346612    602.40964   0.93364989 
  152000     1.789279    602.40964   0.91694513 
  154000    1.7082718    602.40964   0.93084994 
  156000     1.689294    602.40964   0.91755819 
  158000    1.6105177    602.40964   0.90702226 
  160000    1.6110349    602.40964   0.89225665 
  162000    1.6217585    602.40964   0.88162033 
  164000    1.6541104    602.40964    0.8798734 
  166000    1.4448016    602.40964   0.89613852 
  168000    1.4395758    602.40964   0.90858498 
  170000    1.5936134    602.40964   0.84551783 
  172000    1.1403712    602.40964    0.9092608 
  174000    1.2104302    602.40964   0.88034809 
  176000    1.3439993    602.40964   0.86893636 
  178000    1.1575999    602.40964   0.88881989 
  180000    1.7640629    602.40964    0.7927038 
  182000    1.3981295    602.40964   0.85130622 
  184000    1.4289954    602.40964   0.85083763 
  186000    1.5761867    602.40964   0.81941268 
  188000    1.7989543    602.40964   0.81734418 
  190000    1.0626559    602.40964   0.89318762 
  192000    1.6814699    602.40964    0.8238834 
  194000    1.3413499    602.40964   0.86577864 
  196000    1.5657934    602.40964   0.84709862 
  198000    1.5537621    602.40964   0.85631173 
  200000    1.3805324    602.40964   0.87567908 
  202000    1.5706509    602.40964     0.847655 
  204000    1.7648106    602.40964   0.83362115 
  206000    1.7252796    602.40964   0.84866806 
  208000    1.6579721    602.40964   0.86427791 
  210000    1.5765606    602.40964   0.88782318 
  212000    1.5151117    602.40964   0.91011439 
  214000    1.5938587    602.40964    0.8996053 
  216000     1.583918    602.40964   0.91149323 
  218000    1.6686839    602.40964    0.9087388 
  220000     1.735487    602.40964   0.91523378 
  222000    1.7101986    602.40964   0.92932959 
  224000    2.0167394    602.40964   0.88039341 
  226000    1.6317201    602.40964   0.95927785 
  228000    1.6531298    602.40964   0.93650326 
  230000       1.8813    602.40964   0.92007143 
  232000     1.932731    602.40964   0.92231996 
  234000    1.8416378    602.40964   0.94586905 
  236000    1.8919062    602.40964   0.92173731 
  238000    1.8269146    602.40964   0.96228858 
  240000    1.8523745    602.40964   0.95465169 
  242000    2.0020598    602.40964   0.92764127 
  244000    1.9474141    602.40964   0.94045545 
  246000    1.5937817    602.40964   0.98860878 
  248000    1.9756391    602.40964   0.95372385 
  250000    1.7968381    602.40964   0.95980861 
  252000    1.6812463    602.40964   0.97001776 
  254000    2.2898905    602.40964   0.88715236 
  256000    1.8714732    602.40964   0.93925176 
  258000    1.7214783    602.40964   0.94386701 
  260000    2.0967767    602.40964   0.89443547 
  262000    1.6966171    602.40964   0.94028268 
  264000    1.8616629    602.40964   0.91411239 
  266000    1.8280373    602.40964   0.90596093 
  268000    1.6043655    602.40964   0.93773601 
  270000    1.5217589    602.40964   0.92506383 
  272000    1.9749789    602.40964   0.84815323 
  274000    1.3824212    602.40964    0.9436495 
  276000    1.6002147    602.40964   0.90834342 
  278000    1.6324332    602.40964   0.88786951 
  280000    1.6712511    602.40964   0.87028654 
  282000    1.4652756    602.40964   0.89367868 
  284000    1.5067376    602.40964     0.891396 
  286000    1.4430106    602.40964   0.88497686 
  288000    1.7860136    602.40964   0.83738761 
  290000    1.4948153    602.40964   0.85463736 
  292000     1.669904    602.40964   0.84339979 
  294000    1.5313058    602.40964   0.86194924 
  296000    1.3913931    602.40964   0.87202787 
  298000    1.4827523    602.40964   0.86645111 
  300000    1.3989218    602.40964   0.87724832 
  302000    1.6720532    602.40964    0.8275739 
  304000    1.4464419    602.40964   0.85491683 
  306000     1.279128    602.40964   0.89250361 
  308000    1.3585625    602.40964   0.88347764 
  310000    1.5808629    602.40964   0.86504003 
  312000    1.6772247    602.40964    0.8505297 
  314000    1.3336531    602.40964   0.90722926 
  316000    1.5014237    602.40964   0.88116397 
  318000    1.3512411    602.40964   0.89963047 
  320000    1.5522405    602.40964   0.89269603 
  322000    1.6050592    602.40964   0.89057933 
  324000    1.3359605    602.40964   0.93256542 
  326000    1.4997645    602.40964   0.91723612 
  328000    1.4685135    602.40964   0.92250846 
  330000    1.8890037    602.40964   0.85811856 
  332000    1.4478468    602.40964   0.93107062 
  334000    1.8314589    602.40964   0.89907402 
  336000    1.9396776    602.40964   0.87921743 
  338000    1.8311211    602.40964   0.91912863 
  340000    1.6133501    602.40964   0.94117005 
  342000    1.9837369    602.40964    0.9042227 
  344000    1.8647333    602.40964   0.92968333 
  346000    1.7245951    602.40964   0.92402354 
  348000    2.0580922    602.40964   0.89238335 
  350000     1.919461    602.40964   0.92537499 
  352000    1.7495814    602.40964   0.94414302 
  354000    2.0498211    602.40964   0.90231548 
  356000    2.1473742    602.40964   0.88799475 
  358000    1.8823269    602.40964   0.93253853 
  360000    2.2124043    602.40964    0.8925368 
  362000    1.9885052    602.40964   0.90856025 
  364000    1.8718243    602.40964   0.91819792 
  366000    1.8980572    602.40964   0.93884021 
  368000    1.9226146    602.40964   0.92245055 
  370000    1.8499387    602.40964   0.93354476 
  372000    2.0233534    602.40964   0.89067409 
  374000    1.7929225    602.40964   0.92193839 
  376000    1.5509013    602.40964   0.95223529 
  378000    1.6897205    602.40964   0.92721639 
  380000      1.68268    602.40964   0.91729579 
  382000    1.8067476    602.40964   0.91306418 
  384000    1.9273127    602.40964   0.88186705 
  386000    1.5670152    602.40964   0.92022395 
  388000    1.7303975    602.40964   0.89693111 
  390000    1.7124042    602.40964   0.89056936 
  392000    1.9337011    602.40964   0.85397782 
  394000    1.5188961    602.40964   0.89809932 
  396000    1.7422006    602.40964   0.86904512 
  398000    1.5451289    602.40964   0.88553491 
  400000    1.5353813    602.40964   0.88600615 
  402000     1.450679    602.40964   0.88972859 
  404000    1.3878643    602.40964   0.89564388 
  406000    1.4749712    602.40964   0.87559914 
  408000    1.2910452    602.40964   0.91582475 
  410000    1.6005896    602.40964   0.87496055 
  412000    1.5189198    602.40964   0.88665171 
  414000    1.4195204    602.40964   0.88746257 
  416000    1.4734136    602.40964   0.87304726 
  418000    1.3062287    602.40964   0.89812815 
  420000    1.4991436    602.40964   0.87465803 
  422000     1.454675    602.40964     0.878107 
  424000    1.6466053    602.40964   0.86004823 
  426000    1.5904674    602.40964   0.85830333 
  428000    1.7449338    602.40964   0.85427195 
  430000    1.7170139    602.40964   0.87277057 
  432000    1.6761709    602.40964   0.86632524 
  434000    1.7698708    602.40964   0.85045717 
  436000    1.4573321    602.40964   0.92025103 
  438000    1.5393216    602.40964   0.90625034 
  440000    1.7960211    602.40964   0.87606137 
  442000    1.6586332    602.40964   0.89531857 
  444000    1.6644596    602.40964   0.89854382 
  446000    1.8470751    602.40964   0.88023468 
  448000    1.9179091    602.40964   0.88561551 
  450000     2.043872    602.40964   0.86700127 
  452000    1.8245886    602.40964     0.905216 
  454000    1.7487682    602.40964   0.91711792 
  456000    1.8318276    602.40964   0.91222968 
  458000      1.67631    602.40964    0.9483013 
  460000     2.102733    602.40964   0.88453393 
  462000    1.7839619    602.40964   0.93226534 
  464000    1.7071258    602.40964   0.93603378 
  466000    1.7846844    602.40964   0.93336984 
  468000    1.7821729    602.40964     0.925642 
  470000    1.8335484    602.40964   0.94196309 
  472000    1.9245465    602.40964   0.91772305 
  474000    1.8119423    602.40964   0.93870557 
  476000    1.8526355    602.40964   0.92514634 
  478000    1.7646755    602.40964   0.92692433 
  480000    1.8512923    602.40964   0.92524518 
  482000    1.7532823    602.40964   0.93583288 
  484000    1.8097555    602.40964   0.93015173 
  486000    2.0047075    602.40964   0.89170662 
  488000    1.5881871    602.40964   0.93641888 
  490000    1.8030334    602.40964   0.91063072 
  492000    1.8091509    602.40964   0.88420356 
  494000    1.6966919    602.40964   0.90945528 
  496000    1.6956577    602.40964    0.9008453 
  498000    1.7979654    602.40964   0.88806424 
  500000    1.4549251    602.40964   0.92626204 
Loop time of 190.276 on 1 procs for 500000 steps with 500 atoms

Performance: 1135191.930 tau/day, 2627.759 timesteps/s
93.6% CPU use with 1 MPI tasks x no OpenMP threads

MPI task timing breakdown:
Section |  min time  |  avg time  |  max time  |%varavg| %total
---------------------------------------------------------------
Pair    | 155.74     | 155.74     | 155.74     |   0.0 | 81.85
Neigh   | 21.862     | 21.862     | 21.862     |   0.0 | 11.49
Comm    | 6.4031     | 6.4031     | 6.4031     |   0.0 |  3.37
Output  | 0.021899   | 0.021899   | 0.021899   |   0.0 |  0.01
Modify  | 5.019      | 5.019      | 5.019      |   0.0 |  2.64
Other   |            | 1.228      |            |       |  0.65

Nlocal:    500 ave 500 max 500 min
Histogram: 1 0 0 0 0 0 0 0 0 0
Nghost:    1833 ave 1833 max 1833 min
Histogram: 1 0 0 0 0 0 0 0 0 0
Neighs:    18541 ave 18541 max 18541 min
Histogram: 1 0 0 0 0 0 0 0 0 0

Total # of neighbors = 18541
Ave neighs/atom = 37.082
Neighbor list builds = 25000
Dangerous builds not checked
Total wall time: 0:03:10
