LAMMPS (19 Oct 2016)
# equation of state for LJ

variable temp equal 0.9
variable rho  equal 0.881

units lj
atom_style atomic

lattice    fcc ${rho}
lattice    fcc 0.881
Lattice spacing in x,y,z = 1.65588 1.65588 1.65588
region box block 0 5 0 5 0 5
create_box 1 box
Created orthogonal box = (0 0 0) to (8.27938 8.27938 8.27938)
  1 by 1 by 1 MPI processor grid
create_atoms 1 box
Created 500 atoms
mass       1 1.0

pair_style lj/cut 2.5
pair_coeff 1 1 1.0 1.0 2.5

velocity   all create ${temp} 87287
velocity   all create 0.9 87287

neighbor   0.3 bin
neigh_modify every 20 delay 0 check no

fix        1 all nvt temp ${temp} ${temp} 100
fix        1 all nvt temp 0.9 ${temp} 100
fix        1 all nvt temp 0.9 0.9 100
dump       1 all custom 70000 dump_t${temp}_r${rho}.lammpstrj id type x y z
dump       1 all custom 70000 dump_t0.9_r${rho}.lammpstrj id type x y z
dump       1 all custom 70000 dump_t0.9_r0.881.lammpstrj id type x y z
thermo     2000
thermo_style  custom step press vol temp
thermo_modify flush yes

run 500000
Neighbor list info ...
  1 neighbor list requests
  update every 20 steps, delay 0 steps, check no
  max neighbors/atom: 2000, page size: 100000
  master list distance cutoff = 2.8
  ghost atom cutoff = 2.8
  binsize = 1.4 -> bins = 6 6 6
Memory usage per processor = 3.32155 Mbytes
Step Press Volume Temp 
       0   -5.2423337    567.53689          0.9 
    2000     -2.23341    567.53689   0.51088485 
    4000   -2.0455373    567.53689    0.4886442 
    6000   -2.1707121    567.53689   0.51859866 
    8000   -2.0377197    567.53689   0.51240144 
   10000   -1.8361794    567.53689   0.50100571 
   12000   -1.7727508    567.53689   0.50858444 
   14000   -1.7392137    567.53689   0.50618228 
   16000   -1.6638961    567.53689   0.50980494 
   18000   -1.6946434    567.53689    0.5289248 
   20000    -1.771994    567.53689   0.55951184 
   22000   -1.5514159    567.53689   0.54339584 
   24000   -1.4664425    567.53689   0.54562339 
   26000   -1.6179906    567.53689   0.57877631 
   28000   -1.3362637    567.53689   0.56346796 
   30000   -1.3378079    567.53689   0.58399134 
   32000   -1.3117364    567.53689   0.59270046 
   34000   -1.1085623    567.53689   0.59600458 
   36000   -1.1629103    567.53689   0.61545702 
   38000   -1.0012571    567.53689   0.61654856 
   40000   -0.9400708    567.53689   0.62197354 
   42000  -0.96801487    567.53689   0.64682504 
   44000  -0.96622594    567.53689   0.66737861 
   46000  -0.79890348    567.53689   0.66586904 
   48000  -0.83865607    567.53689   0.68459255 
   50000  -0.58818343    567.53689   0.67024402 
   52000    -0.574041    567.53689   0.69944462 
   54000  -0.57216907    567.53689   0.71045496 
   56000  -0.58064009    567.53689   0.73996565 
   58000  -0.24925968    567.53689   0.71291923 
   60000  -0.28846395    567.53689   0.74397657 
   62000 -0.012872734    567.53689    0.7229794 
   64000   0.11253121    567.53689   0.72071717 
   66000 -0.070548149    567.53689   0.77322933 
   68000  -0.01521039    567.53689   0.78484775 
   70000   0.21873362    567.53689   0.77408552 
   72000   0.53405189    567.53689     0.753825 
   74000   0.11411596    567.53689   0.81977847 
   76000   0.15931973    567.53689   0.83694598 
   78000   0.39435212    567.53689   0.82720912 
   80000   0.52211095    567.53689   0.83307413 
   82000     0.638541    567.53689   0.84175072 
   84000    1.3976966    567.53689   0.76310107 
   86000    1.2220871    567.53689   0.79986325 
   88000    1.9227347    567.53689   0.73633822 
   90000    1.8759288    567.53689   0.75639039 
   92000     1.817564    567.53689   0.78420695 
   94000    2.0599974    567.53689   0.75690367 
   96000    2.0446708    567.53689   0.78932346 
   98000     2.133436    567.53689   0.79221145 
  100000    1.9766633    567.53689    0.8351235 
  102000    2.1695201    567.53689   0.83000287 
  104000    2.3332918    567.53689   0.82739095 
  106000    2.4892162    567.53689   0.81552365 
  108000    2.3611835    567.53689   0.85836072 
  110000    2.6836708    567.53689   0.82769392 
  112000    2.6573182    567.53689   0.85066016 
  114000    2.6204632    567.53689   0.87974895 
  116000      2.50004    567.53689   0.93013279 
  118000    2.8638512    567.53689   0.87992944 
  120000    3.2866864    567.53689   0.82501629 
  122000    3.2037537    567.53689   0.86835841 
  124000    2.9594488    567.53689   0.90306695 
  126000    2.9883688    567.53689    0.9180825 
  128000    2.7610541    567.53689   0.97091773 
  130000    3.1196029    567.53689   0.91463786 
  132000    3.1326148    567.53689   0.92726682 
  134000    3.1104533    567.53689   0.94564727 
  136000    3.2640554    567.53689   0.93631432 
  138000     3.077601    567.53689    0.9650812 
  140000    3.2633359    567.53689   0.94969024 
  142000    3.3934547    567.53689   0.93075876 
  144000      3.19986    567.53689   0.96049423 
  146000     3.044148    567.53689   0.99310593 
  148000    3.1741531    567.53689    1.0007028 
  150000     3.334825    567.53689   0.95502328 
  152000    3.3445338    567.53689   0.94483359 
  154000    3.3935233    567.53689   0.93712574 
  156000    3.4852695    567.53689   0.92257855 
  158000    3.3125514    567.53689   0.94106115 
  160000    3.4626343    567.53689   0.91298729 
  162000    2.9129351    567.53689   0.98160859 
  164000    3.2477634    567.53689    0.9276582 
  166000     3.015118    567.53689   0.95494788 
  168000    3.3078684    567.53689   0.90123981 
  170000    3.0695344    567.53689   0.91574933 
  172000    2.8807413    567.53689    0.9268224 
  174000    3.0246082    567.53689   0.90052461 
  176000    2.7414392    567.53689    0.9230615 
  178000    2.6738165    567.53689   0.92933234 
  180000    3.1496853    567.53689   0.87114509 
  182000    2.6534551    567.53689   0.91550474 
  184000    2.8787893    567.53689   0.88259184 
  186000    2.9649533    567.53689   0.85389928 
  188000    2.8008209    567.53689   0.86604171 
  190000    2.7739988    567.53689   0.86445932 
  192000    2.5559824    567.53689   0.89008747 
  194000    2.7687269    567.53689   0.85553973 
  196000    2.6285788    567.53689   0.85802416 
  198000    2.5720399    567.53689   0.85869243 
  200000    2.5075894    567.53689   0.87662364 
  202000    2.6038041    567.53689    0.8564592 
  204000    2.5032629    567.53689   0.86918423 
  206000    2.8795984    567.53689   0.81346121 
  208000     2.589732    567.53689   0.84754126 
  210000    2.7300559    567.53689   0.83269716 
  212000    2.7885495    567.53689   0.83095639 
  214000    2.2304829    567.53689   0.90980692 
  216000    2.7400003    567.53689   0.84672015 
  218000    2.4917389    567.53689   0.87734685 
  220000    2.6499265    567.53689   0.86360014 
  222000    2.7390545    567.53689   0.85814082 
  224000    2.7644803    567.53689   0.85333206 
  226000     2.815656    567.53689   0.85471708 
  228000    2.6805068    567.53689   0.89571677 
  230000    2.7019234    567.53689   0.88458746 
  232000     2.733345    567.53689   0.88347598 
  234000     2.746375    567.53689   0.89394038 
  236000    2.8687331    567.53689    0.8821935 
  238000    2.8089811    567.53689   0.89583086 
  240000    2.7683205    567.53689   0.92463084 
  242000    2.8604859    567.53689   0.92540009 
  244000    3.0844929    567.53689   0.87818966 
  246000    3.1214059    567.53689   0.89544099 
  248000     3.049933    567.53689   0.92205234 
  250000    3.0435122    567.53689    0.9263967 
  252000    3.1049935    567.53689   0.90934055 
  254000     3.105084    567.53689   0.92679714 
  256000    3.0836738    567.53689   0.93396109 
  258000    2.7373317    567.53689   0.97785941 
  260000    3.2333977    567.53689   0.91381905 
  262000    3.0718445    567.53689   0.95113543 
  264000    3.2107607    567.53689   0.92064167 
  266000    3.0985055    567.53689    0.9400035 
  268000    3.0154555    567.53689   0.95155663 
  270000    3.1328708    567.53689   0.92936446 
  272000    3.1595343    567.53689   0.93746392 
  274000    3.1593066    567.53689   0.92320836 
  276000    3.1293482    567.53689   0.93372183 
  278000    2.9638677    567.53689   0.95500732 
  280000    3.2776505    567.53689   0.88858882 
  282000    2.9674583    567.53689    0.9425065 
  284000    3.0184365    567.53689   0.93443734 
  286000    2.9882947    567.53689   0.92235715 
  288000    2.9081736    567.53689   0.92142424 
  290000    2.7971434    567.53689   0.93127805 
  292000    2.5824441    567.53689   0.95022594 
  294000    2.7885279    567.53689   0.92992783 
  296000      2.88083    567.53689   0.89287577 
  298000    2.9268434    567.53689   0.88075656 
  300000    2.9861261    567.53689   0.88097148 
  302000    2.6632532    567.53689   0.92303112 
  304000    2.5459625    567.53689    0.9284322 
  306000    2.7039666    567.53689   0.89025164 
  308000    2.9498194    567.53689   0.84742493 
  310000    2.6660617    567.53689   0.89313935 
  312000    2.7818341    567.53689   0.86071176 
  314000    2.7337077    567.53689   0.86498418 
  316000    2.7357496    567.53689    0.8554162 
  318000    2.7225996    567.53689   0.86148866 
  320000    2.6473394    567.53689   0.87813719 
  322000    2.5012392    567.53689   0.89015882 
  324000    2.3318063    567.53689   0.90871512 
  326000    2.6623807    567.53689   0.85511025 
  328000    2.7553304    567.53689    0.8652688 
  330000     2.741859    567.53689   0.85029204 
  332000    2.6560961    567.53689   0.86783652 
  334000    3.1059802    567.53689   0.81587534 
  336000    2.4474533    567.53689   0.89808342 
  338000    2.7711849    567.53689   0.85848459 
  340000    2.6595262    567.53689   0.87031088 
  342000    2.8647838    567.53689   0.84517238 
  344000     2.802418    567.53689   0.86674166 
  346000    2.8683503    567.53689   0.88034786 
  348000    2.7690168    567.53689    0.8767563 
  350000    2.7786277    567.53689   0.88953645 
  352000    2.8845642    567.53689   0.89143927 
  354000    2.7891245    567.53689   0.91431048 
  356000    3.0133843    567.53689   0.87681061 
  358000    2.8052147    567.53689   0.92475784 
  360000    2.8422685    567.53689   0.91944934 
  362000     3.104404    567.53689   0.89838155 
  364000    2.9659598    567.53689   0.90365071 
  366000    2.9686799    567.53689   0.92579844 
  368000    2.5553486    567.53689   0.98049306 
  370000    3.0675106    567.53689   0.91413339 
  372000    3.1378921    567.53689   0.91418266 
  374000    2.9036505    567.53689   0.94187266 
  376000    2.8739175    567.53689   0.93552932 
  378000    2.9583923    567.53689   0.93438322 
  380000    3.0145099    567.53689   0.94403293 
  382000    3.3597653    567.53689   0.89715162 
  384000    3.3276637    567.53689   0.89824568 
  386000    2.8112863    567.53689   0.95680727 
  388000    3.0697766    567.53689   0.92789566 
  390000    2.8298627    567.53689   0.95932955 
  392000     3.181309    567.53689   0.91183583 
  394000    3.2034568    567.53689   0.91768765 
  396000    2.9903328    567.53689   0.92215168 
  398000    2.9165408    567.53689   0.93279894 
  400000    2.6533867    567.53689    0.9636319 
  402000    3.0964134    567.53689   0.90759277 
  404000    2.8331793    567.53689   0.94008441 
  406000    2.9383186    567.53689   0.90876747 
  408000    2.9943126    567.53689   0.89825344 
  410000    2.7256761    567.53689   0.92771543 
  412000    2.9970305    567.53689   0.88984954 
  414000    2.6678135    567.53689   0.93572107 
  416000    3.1037817    567.53689   0.86301707 
  418000    2.9924024    567.53689   0.87017995 
  420000    2.7660152    567.53689   0.89034979 
  422000    2.7353397    567.53689   0.89215374 
  424000    3.0029899    567.53689   0.86236767 
  426000    2.8354518    567.53689   0.86807044 
  428000     2.886815    567.53689   0.84956279 
  430000    2.6808221    567.53689   0.89461567 
  432000     2.689357    567.53689   0.88926931 
  434000    2.5107923    567.53689    0.9039058 
  436000    2.8199336    567.53689   0.86467705 
  438000    2.5872149    567.53689   0.89025136 
  440000    2.7019699    567.53689   0.86897653 
  442000    2.6567661    567.53689   0.88304867 
  444000    2.4950097    567.53689    0.8929755 
  446000    2.4363199    567.53689   0.91430977 
  448000    2.9677004    567.53689   0.83470249 
  450000    2.8868694    567.53689    0.8534519 
  452000    2.4816691    567.53689   0.91019203 
  454000    2.5708906    567.53689   0.88696282 
  456000    2.7288579    567.53689   0.88261346 
  458000    2.5167585    567.53689   0.90920894 
  460000    2.9161996    567.53689   0.86478143 
  462000    2.5361362    567.53689    0.9170569 
  464000     2.988433    567.53689   0.87534912 
  466000    2.9574142    567.53689   0.87030661 
  468000    3.0732755    567.53689   0.85842063 
  470000    2.9974952    567.53689   0.89714215 
  472000    2.8162782    567.53689   0.91443553 
  474000    3.1503667    567.53689   0.86516419 
  476000    2.8718099    567.53689   0.92832059 
  478000    3.2411421    567.53689   0.86005159 
  480000    2.8151638    567.53689   0.93892616 
  482000    3.1635561    567.53689   0.88631024 
  484000    3.2327146    567.53689   0.88494178 
  486000    3.1633039    567.53689   0.90427105 
  488000    2.9490581    567.53689   0.92643041 
  490000    2.9306358    567.53689   0.94080234 
  492000    3.0044491    567.53689   0.92322281 
  494000    3.0801277    567.53689   0.91016257 
  496000    3.0180804    567.53689   0.92699945 
  498000    3.1526472    567.53689   0.90678931 
  500000    3.1861381    567.53689   0.90374274 
Loop time of 284.051 on 1 procs for 500000 steps with 500 atoms

Performance: 760426.340 tau/day, 1760.246 timesteps/s
89.5% CPU use with 1 MPI tasks x no OpenMP threads

MPI task timing breakdown:
Section |  min time  |  avg time  |  max time  |%varavg| %total
---------------------------------------------------------------
Pair    | 228.29     | 228.29     | 228.29     |   0.0 | 80.37
Neigh   | 38.023     | 38.023     | 38.023     |   0.0 | 13.39
Comm    | 8.9642     | 8.9642     | 8.9642     |   0.0 |  3.16
Output  | 0.04285    | 0.04285    | 0.04285    |   0.0 |  0.02
Modify  | 7.0315     | 7.0315     | 7.0315     |   0.0 |  2.48
Other   |            | 1.696      |            |       |  0.60

Nlocal:    500 ave 500 max 500 min
Histogram: 1 0 0 0 0 0 0 0 0 0
Nghost:    1839 ave 1839 max 1839 min
Histogram: 1 0 0 0 0 0 0 0 0 0
Neighs:    19682 ave 19682 max 19682 min
Histogram: 1 0 0 0 0 0 0 0 0 0

Total # of neighbors = 19682
Ave neighs/atom = 39.364
Neighbor list builds = 25000
Dangerous builds not checked
Total wall time: 0:04:44
