LAMMPS (19 Oct 2016)
# equation of state for LJ

variable temp equal 0.9
variable rho  equal 0.78

units lj
atom_style atomic

lattice    fcc ${rho}
lattice    fcc 0.78
Lattice spacing in x,y,z = 1.72447 1.72447 1.72447
region box block 0 5 0 5 0 5
create_box 1 box
Created orthogonal box = (0 0 0) to (8.62234 8.62234 8.62234)
  1 by 1 by 1 MPI processor grid
create_atoms 1 box
Created 500 atoms
mass       1 1.0

pair_style lj/cut 2.5
pair_coeff 1 1 1.0 1.0 2.5

velocity   all create ${temp} 87287
velocity   all create 0.9 87287

neighbor   0.3 bin
neigh_modify every 20 delay 0 check no

fix        1 all nvt temp ${temp} ${temp} 100
fix        1 all nvt temp 0.9 ${temp} 100
fix        1 all nvt temp 0.9 0.9 100
dump       1 all custom 70000 dump_t${temp}_r${rho}.lammpstrj id type x y z
dump       1 all custom 70000 dump_t0.9_r${rho}.lammpstrj id type x y z
dump       1 all custom 70000 dump_t0.9_r0.78.lammpstrj id type x y z
thermo     2000
thermo_style  custom step press vol temp
thermo_modify flush yes

run 500000
Neighbor list info ...
  1 neighbor list requests
  update every 20 steps, delay 0 steps, check no
  max neighbors/atom: 2000, page size: 100000
  master list distance cutoff = 2.8
  ghost atom cutoff = 2.8
  binsize = 1.4 -> bins = 7 7 7
Memory usage per processor = 3.32306 Mbytes
Step Press Volume Temp 
       0   -5.4180301    641.02564          0.9 
    2000   -1.2679796    641.02564   0.47247191 
    4000   -1.2930863    641.02564   0.47146166 
    6000   -1.0987394    641.02564   0.46190707 
    8000  -0.99028389    641.02564   0.49595471 
   10000    -1.009613    641.02564   0.47824227 
   12000   -1.1189358    641.02564   0.51539725 
   14000   -1.1198603    641.02564   0.52231165 
   16000   -0.8287228    641.02564   0.50379915 
   18000   -1.1638856    641.02564   0.53558157 
   20000  -0.99393035    641.02564   0.53455766 
   22000   -1.0700014    641.02564   0.55406727 
   24000  -0.88037209    641.02564   0.53722784 
   26000  -0.84328324    641.02564   0.54712871 
   28000  -0.79303142    641.02564   0.55624987 
   30000  -0.82513788    641.02564   0.60630506 
   32000  -0.61238004    641.02564   0.58812552 
   34000  -0.57220745    641.02564   0.58692399 
   36000  -0.81832584    641.02564   0.63815328 
   38000  -0.53445086    641.02564    0.6162915 
   40000  -0.47538138    641.02564   0.63476391 
   42000  -0.19704415    641.02564   0.60263993 
   44000  -0.36015464    641.02564    0.6571398 
   46000  -0.30184098    641.02564   0.66924771 
   48000  -0.40085939    641.02564   0.68756494 
   50000   0.03469794    641.02564   0.66103096 
   52000  -0.14668657    641.02564   0.70734766 
   54000  -0.09888229    641.02564   0.73106939 
   56000  -0.19367609    641.02564   0.73440356 
   58000  0.024802805    641.02564   0.74404174 
   60000    0.1877198    641.02564   0.74208806 
   62000   0.30987923    641.02564   0.72762438 
   64000   0.43547921    641.02564   0.75468153 
   66000   0.14165098    641.02564   0.79420104 
   68000   0.40346468    641.02564   0.77928529 
   70000   0.73993518    641.02564    0.7705485 
   72000   0.65668315    641.02564   0.81642495 
   74000   0.45514681    641.02564   0.82104054 
   76000   0.66776962    641.02564   0.82472752 
   78000   0.77433445    641.02564   0.82095843 
   80000   0.58693243    641.02564   0.87683273 
   82000   0.54424388    641.02564   0.90608661 
   84000   0.66115705    641.02564   0.89565846 
   86000    1.1235806    641.02564   0.86040525 
   88000   0.92626809    641.02564   0.90605675 
   90000   0.72135863    641.02564    0.9397034 
   92000   0.77860297    641.02564   0.94702513 
   94000    1.0497297    641.02564   0.92065641 
   96000   0.94723872    641.02564   0.95331359 
   98000   0.99142278    641.02564   0.97219658 
  100000    1.4235993    641.02564   0.90509972 
  102000    1.3679654    641.02564   0.91695277 
  104000    1.0781038    641.02564   0.95890782 
  106000    1.2250608    641.02564   0.92859501 
  108000     1.247501    641.02564   0.95040987 
  110000    1.2878078    641.02564   0.97396988 
  112000    1.0213428    641.02564   0.98038085 
  114000    1.2176625    641.02564    0.9777748 
  116000    1.0618705    641.02564   0.97677986 
  118000    1.2102573    641.02564    0.9622593 
  120000   0.99579047    641.02564   0.99020604 
  122000    1.3875207    641.02564   0.94324853 
  124000    1.1411831    641.02564   0.97307965 
  126000    1.0308904    641.02564   0.96820256 
  128000     1.252507    641.02564   0.92679988 
  130000    1.1348172    641.02564   0.93475582 
  132000    1.0464551    641.02564     0.947512 
  134000    1.0625772    641.02564   0.91604733 
  136000    0.9549414    641.02564   0.92408423 
  138000   0.82847486    641.02564   0.92760737 
  140000    1.1980729    641.02564   0.88474396 
  142000   0.74447547    641.02564   0.91710519 
  144000    0.7602755    641.02564   0.91521095 
  146000   0.97676686    641.02564    0.8761886 
  148000    0.8282668    641.02564   0.87990415 
  150000   0.84910808    641.02564   0.88226245 
  152000    0.7645028    641.02564   0.87039059 
  154000   0.69228304    641.02564   0.87383418 
  156000   0.94977595    641.02564   0.84312282 
  158000   0.94014329    641.02564   0.83906271 
  160000   0.66931531    641.02564   0.86617523 
  162000   0.40058323    641.02564   0.90427455 
  164000   0.72969586    641.02564   0.87111773 
  166000   0.58566795    641.02564   0.86518103 
  168000   0.68368581    641.02564   0.84660874 
  170000   0.79254902    641.02564   0.81995473 
  172000   0.65607579    641.02564   0.85664281 
  174000   0.73577955    641.02564     0.849645 
  176000   0.67798798    641.02564   0.84831445 
  178000   0.61574507    641.02564   0.86356084 
  180000   0.62650662    641.02564   0.86331697 
  182000   0.70125058    641.02564     0.873172 
  184000   0.67016943    641.02564   0.87262917 
  186000   0.68310857    641.02564   0.87097341 
  188000   0.59695671    641.02564   0.90136135 
  190000   0.83909477    641.02564   0.87208295 
  192000   0.76289685    641.02564   0.89847536 
  194000   0.60375671    641.02564   0.92043036 
  196000   0.72929419    641.02564   0.92143698 
  198000   0.84741587    641.02564   0.89807755 
  200000   0.96303329    641.02564   0.87640374 
  202000     0.922483    641.02564   0.90811875 
  204000   0.88197145    641.02564   0.92348114 
  206000    1.2067749    641.02564   0.89733539 
  208000    1.1223684    641.02564   0.89699406 
  210000   0.80655166    641.02564   0.95428083 
  212000    1.1403267    641.02564   0.90015161 
  214000    1.2069817    641.02564   0.90977171 
  216000    1.1084659    641.02564    0.9088182 
  218000   0.85297693    641.02564   0.96031394 
  220000    1.1468803    641.02564   0.93074892 
  222000    1.2544152    641.02564   0.93221518 
  224000   0.98967269    641.02564   0.95708738 
  226000   0.74274498    641.02564   0.98102095 
  228000   0.87034326    641.02564   0.96930303 
  230000    1.4234028    641.02564   0.90313829 
  232000   0.88374047    641.02564   0.96902477 
  234000    1.1224308    641.02564   0.92502056 
  236000    1.0671689    641.02564   0.93038229 
  238000    1.0916319    641.02564   0.94612124 
  240000    1.1458401    641.02564   0.90029063 
  242000   0.96687897    641.02564   0.91730115 
  244000    1.2276065    641.02564   0.88448717 
  246000   0.94831251    641.02564   0.92768393 
  248000   0.75558233    641.02564   0.92583077 
  250000    1.0639245    641.02564   0.89474176 
  252000   0.63240915    641.02564   0.95289832 
  254000   0.99072295    641.02564   0.88309105 
  256000   0.82234093    641.02564    0.9116524 
  258000   0.55175354    641.02564   0.91433463 
  260000   0.65990724    641.02564   0.90384521 
  262000   0.66326581    641.02564   0.91381924 
  264000   0.69158595    641.02564   0.89823135 
  266000   0.67246019    641.02564   0.89060141 
  268000   0.60578756    641.02564   0.88502938 
  270000   0.76926844    641.02564   0.87530484 
  272000   0.70808099    641.02564   0.86514396 
  274000   0.91080984    641.02564   0.85372607 
  276000   0.57189965    641.02564   0.88729926 
  278000   0.71568058    641.02564   0.87246416 
  280000   0.54307095    641.02564   0.89391515 
  282000    1.0116746    641.02564   0.84744705 
  284000   0.80607728    641.02564   0.85529812 
  286000   0.80759327    641.02564   0.85617265 
  288000    0.9265599    641.02564   0.85115276 
  290000   0.76519212    641.02564   0.87065974 
  292000   0.85297044    641.02564   0.85503997 
  294000   0.71253681    641.02564   0.88573746 
  296000   0.57221293    641.02564   0.90515263 
  298000   0.72302985    641.02564   0.90193371 
  300000   0.64946584    641.02564   0.91065061 
  302000   0.62310117    641.02564   0.91182383 
  304000   0.76540515    641.02564   0.91075082 
  306000   0.65379458    641.02564   0.92418304 
  308000   0.94858839    641.02564   0.90682382 
  310000   0.73678445    641.02564   0.92530454 
  312000   0.77824821    641.02564   0.93710443 
  314000    1.0892486    641.02564   0.88340771 
  316000   0.84443267    641.02564    0.9125468 
  318000   0.99587553    641.02564   0.91872836 
  320000    1.0186079    641.02564   0.92373314 
  322000   0.85218555    641.02564   0.94426617 
  324000    1.0136112    641.02564   0.91652385 
  326000   0.93918613    641.02564   0.93761853 
  328000   0.92258553    641.02564   0.92859348 
  330000    1.0575845    641.02564   0.92980982 
  332000   0.97961866    641.02564    0.9522684 
  334000    1.1490422    641.02564   0.90787601 
  336000   0.88524809    641.02564   0.94933532 
  338000    1.1159901    641.02564   0.93242449 
  340000   0.95350165    641.02564   0.93328429 
  342000    1.0548508    641.02564    0.9346458 
  344000     1.110459    641.02564   0.92056538 
  346000     1.101261    641.02564   0.93418216 
  348000    1.0330703    641.02564   0.90563524 
  350000    1.1339857    641.02564   0.92434217 
  352000    1.1907986    641.02564   0.90713884 
  354000    1.0824203    641.02564   0.90623838 
  356000   0.88274432    641.02564   0.92006296 
  358000    1.0633757    641.02564   0.90495395 
  360000    1.1359152    641.02564   0.89676179 
  362000   0.92117526    641.02564   0.90642297 
  364000   0.69258538    641.02564    0.9232322 
  366000   0.90653461    641.02564    0.8984046 
  368000   0.73522712    641.02564   0.91292236 
  370000    0.8965267    641.02564   0.88693226 
  372000    0.8757101    641.02564   0.88050982 
  374000   0.77260066    641.02564   0.87763861 
  376000   0.94859161    641.02564    0.8755568 
  378000   0.75567666    641.02564   0.87096677 
  380000   0.66394143    641.02564   0.89253014 
  382000   0.71748564    641.02564   0.88230432 
  384000   0.92116936    641.02564   0.84871642 
  386000   0.83069434    641.02564    0.8659937 
  388000    0.5995938    641.02564   0.90559096 
  390000   0.79171992    641.02564   0.85702217 
  392000   0.96913367    641.02564   0.84227161 
  394000   0.67676963    641.02564   0.87893106 
  396000   0.91474821    641.02564   0.85776176 
  398000   0.68615387    641.02564   0.88654265 
  400000   0.75212897    641.02564   0.87110611 
  402000   0.70078077    641.02564    0.9007355 
  404000    1.0171771    641.02564    0.8588421 
  406000   0.86540095    641.02564   0.86715551 
  408000   0.79844734    641.02564   0.90853993 
  410000   0.92099611    641.02564   0.86741793 
  412000   0.87366744    641.02564   0.89155508 
  414000   0.92513685    641.02564   0.87527565 
  416000   0.95440417    641.02564   0.88373707 
  418000   0.91671338    641.02564   0.89097664 
  420000    1.1225018    641.02564   0.88755722 
  422000   0.86980594    641.02564   0.90724476 
  424000    1.0460263    641.02564   0.90733299 
  426000   0.84267931    641.02564   0.93353226 
  428000   0.95996348    641.02564   0.90647093 
  430000   0.96731484    641.02564   0.93026475 
  432000   0.89837894    641.02564   0.93631307 
  434000    1.1009283    641.02564   0.90624396 
  436000   0.82431531    641.02564   0.94397565 
  438000    1.1369744    641.02564   0.90544056 
  440000   0.73100327    641.02564   0.95671221 
  442000   0.72279454    641.02564   0.96178064 
  444000   0.81941846    641.02564   0.96059837 
  446000   0.99545299    641.02564   0.91569878 
  448000    1.2011467    641.02564    0.8896164 
  450000    1.0508511    641.02564   0.91567762 
  452000   0.74916351    641.02564   0.95549734 
  454000    0.7982462    641.02564   0.94989415 
  456000   0.90497152    641.02564   0.92783735 
  458000   0.75296449    641.02564   0.94203581 
  460000   0.89069824    641.02564   0.92892196 
  462000    1.1639967    641.02564   0.87205529 
  464000    1.0830309    641.02564   0.88030376 
  466000   0.70986794    641.02564   0.92240928 
  468000    1.1148436    641.02564   0.86785432 
  470000   0.82885994    641.02564   0.89556317 
  472000   0.79394009    641.02564    0.8986348 
  474000   0.76181873    641.02564   0.88673657 
  476000   0.59859198    641.02564   0.89613962 
  478000    0.6041357    641.02564   0.89729934 
  480000   0.69902572    641.02564   0.85557834 
  482000   0.59136766    641.02564   0.86282293 
  484000   0.78116866    641.02564   0.84244013 
  486000   0.75011881    641.02564   0.84531007 
  488000    0.5720697    641.02564    0.8534991 
  490000   0.54223982    641.02564   0.85739866 
  492000    0.7960099    641.02564   0.81482197 
  494000    0.5222123    641.02564   0.84970561 
  496000   0.61649313    641.02564   0.85677551 
  498000   0.69414775    641.02564   0.82717591 
  500000   0.68236556    641.02564   0.83101074 
Loop time of 185.19 on 1 procs for 500000 steps with 500 atoms

Performance: 1166367.344 tau/day, 2699.924 timesteps/s
85.7% CPU use with 1 MPI tasks x no OpenMP threads

MPI task timing breakdown:
Section |  min time  |  avg time  |  max time  |%varavg| %total
---------------------------------------------------------------
Pair    | 151.19     | 151.19     | 151.19     |   0.0 | 81.64
Neigh   | 20.934     | 20.934     | 20.934     |   0.0 | 11.30
Comm    | 6.3083     | 6.3083     | 6.3083     |   0.0 |  3.41
Output  | 0.031554   | 0.031554   | 0.031554   |   0.0 |  0.02
Modify  | 5.4269     | 5.4269     | 5.4269     |   0.0 |  2.93
Other   |            | 1.303      |            |       |  0.70

Nlocal:    500 ave 500 max 500 min
Histogram: 1 0 0 0 0 0 0 0 0 0
Nghost:    1777 ave 1777 max 1777 min
Histogram: 1 0 0 0 0 0 0 0 0 0
Neighs:    17455 ave 17455 max 17455 min
Histogram: 1 0 0 0 0 0 0 0 0 0

Total # of neighbors = 17455
Ave neighs/atom = 34.91
Neighbor list builds = 25000
Dangerous builds not checked
Total wall time: 0:03:05
