LAMMPS (19 Oct 2016)
# equation of state for LJ

variable temp equal 0.9
variable rho  equal 0.8

units lj
atom_style atomic

lattice    fcc ${rho}
lattice    fcc 0.8
Lattice spacing in x,y,z = 1.70998 1.70998 1.70998
region box block 0 5 0 5 0 5
create_box 1 box
Created orthogonal box = (0 0 0) to (8.54988 8.54988 8.54988)
  1 by 1 by 1 MPI processor grid
create_atoms 1 box
Created 500 atoms
mass       1 1.0

pair_style lj/cut 2.5
pair_coeff 1 1 1.0 1.0 2.5

velocity   all create ${temp} 87287
velocity   all create 0.9 87287

neighbor   0.3 bin
neigh_modify every 20 delay 0 check no

fix        1 all nvt temp ${temp} ${temp} 100
fix        1 all nvt temp 0.9 ${temp} 100
fix        1 all nvt temp 0.9 0.9 100
dump       1 all custom 70000 dump_t${temp}_r${rho}.lammpstrj id type x y z
dump       1 all custom 70000 dump_t0.9_r${rho}.lammpstrj id type x y z
dump       1 all custom 70000 dump_t0.9_r0.8.lammpstrj id type x y z
thermo     2000
thermo_style  custom step press vol temp
thermo_modify flush yes

run 500000
Neighbor list info ...
  1 neighbor list requests
  update every 20 steps, delay 0 steps, check no
  max neighbors/atom: 2000, page size: 100000
  master list distance cutoff = 2.8
  ghost atom cutoff = 2.8
  binsize = 1.4 -> bins = 7 7 7
Memory usage per processor = 3.32306 Mbytes
Step Press Volume Temp 
       0   -5.4904066          625          0.9 
    2000   -1.3779236          625   0.45853029 
    4000   -1.2255099          625   0.43722892 
    6000   -1.2930637          625   0.44396027 
    8000   -1.2535955          625   0.45960346 
   10000    -1.260533          625   0.47410104 
   12000   -1.0898659          625   0.48357451 
   14000   -1.2593953          625    0.4974109 
   16000   -1.2520944          625   0.50579629 
   18000   -1.1265477          625   0.51066701 
   20000   -1.1031729          625   0.50700296 
   22000  -0.92942639          625   0.50943867 
   24000  -0.93307688          625   0.51952733 
   26000  -0.84434937          625   0.52744632 
   28000  -0.86580011          625   0.52720892 
   30000  -0.98315589          625   0.57686492 
   32000  -0.60117294          625   0.55007142 
   34000  -0.77295522          625   0.58603689 
   36000  -0.61197589          625   0.58873802 
   38000  -0.57225032          625   0.57535257 
   40000  -0.72267215          625   0.60993303 
   42000  -0.25149207          625   0.59137321 
   44000  -0.38440395          625   0.61797384 
   46000 -0.063425041          625   0.62404417 
   48000  0.065909146          625   0.60801952 
   50000 -0.023447305          625   0.63466967 
   52000  0.030643225          625   0.66002214 
   54000  -0.12992506          625   0.69443923 
   56000   0.12350282          625   0.70125822 
   58000   0.29744523          625   0.70887946 
   60000 -0.00078416423          625   0.72977707 
   62000   0.42482176          625   0.70267085 
   64000   0.33080257          625   0.72547084 
   66000   0.37861638          625   0.76970802 
   68000   0.51115452          625   0.76641024 
   70000   0.58362747          625   0.75688653 
   72000   0.69941845          625   0.75474323 
   74000   0.77280413          625   0.79107979 
   76000   0.59633575          625   0.80587908 
   78000   0.72679262          625   0.83340259 
   80000   0.91698968          625   0.81445477 
   82000   0.88895707          625   0.84615653 
   84000    0.8568531          625   0.86471656 
   86000   0.77680601          625   0.89402925 
   88000   0.93586605          625   0.88953657 
   90000    1.0757023          625   0.89629016 
   92000    1.2071104          625    0.8861241 
   94000     1.043928          625    0.9162749 
   96000    1.2595743          625   0.92306312 
   98000    1.2397811          625   0.93956844 
  100000     1.187199          625   0.95157253 
  102000    1.2451215          625    0.9509755 
  104000    1.1277205          625   0.97189784 
  106000     1.321596          625   0.97680098 
  108000    1.4564269          625    0.9453544 
  110000    1.1912745          625   0.99230112 
  112000    1.7604709          625   0.91548164 
  114000    1.2615191          625   0.99485086 
  116000    1.6928606          625   0.94969612 
  118000     1.433349          625   0.96861779 
  120000    1.4934717          625   0.96216853 
  122000    1.4960214          625   0.96184484 
  124000    1.2084053          625    1.0068591 
  126000    1.5996402          625   0.93570248 
  128000    1.3071439          625   0.98244018 
  130000    1.5493274          625   0.93941474 
  132000    1.3816101          625   0.96532523 
  134000    1.2665793          625    0.9609536 
  136000    1.3048468          625   0.95193614 
  138000     1.413841          625   0.93184053 
  140000    1.1924178          625   0.94277413 
  142000    1.6586644          625   0.86636275 
  144000    1.5796968          625   0.87909629 
  146000   0.99322994          625   0.93935928 
  148000   0.99331879          625   0.93572559 
  150000     1.196061          625   0.88832567 
  152000    1.2482867          625   0.86151981 
  154000    1.2092409          625   0.86140023 
  156000    1.0021859          625   0.88845674 
  158000    1.2823176          625   0.85452005 
  160000    1.0465066          625   0.87521671 
  162000    1.1589308          625   0.83352077 
  164000   0.88600017          625   0.88892403 
  166000    1.0207337          625   0.85326844 
  168000    0.9756893          625   0.86495669 
  170000   0.84883643          625   0.86128466 
  172000    1.1844562          625   0.80335423 
  174000   0.86915577          625   0.85019932 
  176000    1.0643578          625   0.82727003 
  178000    1.0165429          625   0.83858026 
  180000    1.0256728          625   0.85155163 
  182000    1.0341721          625   0.82195262 
  184000    1.1182758          625   0.83560661 
  186000   0.82746555          625   0.85590107 
  188000    0.8196031          625   0.87938995 
  190000      1.17326          625   0.85241582 
  192000    1.0940468          625   0.85282073 
  194000    1.1608019          625   0.85822271 
  196000     1.004783          625   0.88343787 
  198000    1.0805618          625   0.88805564 
  200000    1.1532841          625   0.87566795 
  202000    1.2773875          625   0.86223389 
  204000    1.2029481          625   0.87356645 
  206000    1.2076863          625   0.89679052 
  208000    1.3172337          625   0.88778055 
  210000    1.2157442          625   0.91751622 
  212000    1.3933775          625   0.88654541 
  214000    1.4752294          625   0.90340943 
  216000    1.2179544          625   0.92893726 
  218000    1.2346646          625   0.95205258 
  220000    1.4513047          625   0.92266918 
  222000    1.3390098          625   0.92729213 
  224000     1.266722          625   0.94954543 
  226000    1.5077394          625   0.92103688 
  228000    1.2572498          625   0.94883477 
  230000    1.8451399          625   0.87275753 
  232000    1.7130735          625   0.89678768 
  234000    1.5342609          625   0.91447551 
  236000    1.4951353          625    0.9297928 
  238000    1.3780627          625   0.94404334 
  240000    1.4296479          625   0.93334128 
  242000    1.2371272          625   0.94992525 
  244000    1.1743028          625   0.98042539 
  246000    1.0414107          625   0.97408166 
  248000    1.4547069          625   0.91640307 
  250000    1.4961772          625   0.89606784 
  252000    1.3590336          625   0.91233873 
  254000    1.4480249          625   0.90823816 
  256000    1.1822384          625   0.90823493 
  258000    1.1166613          625   0.91515872 
  260000     1.371142          625    0.8825209 
  262000     1.423061          625   0.86214833 
  264000    1.0514355          625   0.90543516 
  266000    1.0521408          625   0.90143552 
  268000    1.1244926          625   0.87974232 
  270000    1.2546853          625    0.8687691 
  272000   0.84242461          625   0.91855594 
  274000    1.1052846          625   0.86575982 
  276000   0.89955506          625   0.88505624 
  278000   0.84107045          625   0.89794693 
  280000      1.05439          625   0.86436716 
  282000    1.0001745          625   0.87074099 
  284000   0.80446008          625   0.89319174 
  286000    0.9707894          625   0.87017644 
  288000    1.0566619          625   0.85443074 
  290000   0.95085491          625   0.87642911 
  292000   0.84662092          625   0.87801312 
  294000    1.0135115          625   0.85824521 
  296000    1.0415859          625   0.85404875 
  298000   0.79721406          625    0.8944612 
  300000     1.115651          625    0.8568463 
  302000    1.2308183          625   0.85392244 
  304000   0.81214892          625   0.89138123 
  306000    1.1485289          625   0.85100172 
  308000    1.0508447          625   0.87429225 
  310000    1.3699283          625   0.85745852 
  312000    1.2829052          625   0.85007204 
  314000    1.0508447          625   0.91181644 
  316000    1.0955162          625   0.91465637 
  318000    1.0348139          625   0.92045054 
  320000    1.1360343          625   0.91365425 
  322000    1.3731309          625   0.89352578 
  324000    1.2219876          625   0.91638819 
  326000    1.3057187          625   0.90635201 
  328000    1.0821368          625   0.95096718 
  330000    1.4584702          625   0.89317116 
  332000     1.382288          625   0.90761253 
  334000     1.511696          625   0.90790746 
  336000    1.4457043          625   0.91175315 
  338000    1.2104254          625   0.94191706 
  340000    1.2258939          625   0.95154524 
  342000    1.4662165          625   0.91778941 
  344000    1.2528542          625   0.93097403 
  346000    1.3753967          625   0.95070591 
  348000     1.385076          625    0.9407398 
  350000    1.2653952          625   0.93360356 
  352000    1.1732706          625   0.94889087 
  354000    1.2727599          625   0.94159552 
  356000    1.3153121          625   0.93047894 
  358000    1.5026414          625    0.8905223 
  360000    1.3813595          625   0.91215364 
  362000    1.3060195          625   0.91504944 
  364000    1.1755354          625   0.93988203 
  366000    1.3904287          625   0.88634872 
  368000    1.0755933          625   0.93976934 
  370000   0.98519333          625      0.92274 
  372000    1.2182677          625   0.89891439 
  374000    1.0197578          625   0.91351341 
  376000    1.3514191          625   0.85757174 
  378000    1.2446003          625   0.87163121 
  380000    1.0581823          625    0.8864593 
  382000   0.99177709          625   0.89879397 
  384000   0.99858132          625   0.88987549 
  386000    1.1435074          625   0.86739994 
  388000    1.1204186          625   0.86357343 
  390000   0.99156815          625   0.87920894 
  392000   0.93467112          625   0.88528531 
  394000    1.0135768          625   0.85905348 
  396000    1.1642257          625   0.86809105 
  398000     1.011936          625    0.8686097 
  400000    1.0795122          625   0.86253986 
  402000    1.1471318          625   0.86047951 
  404000    1.0062057          625   0.86239078 
  406000    1.1987541          625   0.86164581 
  408000   0.97099084          625   0.87894916 
  410000    1.0664391          625   0.86584926 
  412000    1.5556046          625   0.82386093 
  414000     1.024541          625   0.88739999 
  416000   0.88786042          625   0.91267288 
  418000    1.0285663          625   0.89351143 
  420000     1.124068          625   0.87890787 
  422000    1.3985818          625   0.84010926 
  424000    1.2276789          625     0.886302 
  426000   0.75138863          625   0.96478271 
  428000    1.1901973          625   0.88600032 
  430000    1.2151433          625   0.90998093 
  432000    1.2903366          625   0.89105531 
  434000    1.2354136          625   0.91960638 
  436000    1.3612203          625   0.89296894 
  438000    1.2966953          625   0.91819881 
  440000    1.3587509          625   0.89630652 
  442000    1.2604287          625   0.91909479 
  444000    1.2759691          625   0.92902661 
  446000    1.3831419          625   0.91316864 
  448000    1.4417149          625   0.89891877 
  450000    1.3028156          625   0.92740966 
  452000    1.3509626          625    0.9294312 
  454000    1.5645215          625   0.89202377 
  456000    1.0083435          625   0.96875937 
  458000     1.134444          625   0.94439164 
  460000    1.2963315          625   0.91577666 
  462000    1.1691869          625   0.93692857 
  464000    1.2899036          625   0.92730398 
  466000    1.3262058          625   0.91659611 
  468000    1.2175873          625   0.94860197 
  470000    1.2057997          625   0.92066149 
  472000    1.5028589          625   0.88492553 
  474000     1.522256          625   0.88661804 
  476000    1.2956664          625   0.90144403 
  478000    1.1041048          625   0.91155985 
  480000    1.2030364          625    0.9196567 
  482000    1.0235609          625    0.9134509 
  484000    1.1149065          625   0.90367092 
  486000    1.1129125          625   0.88724831 
  488000    1.1262919          625   0.88708227 
  490000    1.0877589          625   0.87789563 
  492000   0.86545214          625   0.88517935 
  494000     1.028834          625   0.86898986 
  496000   0.87543669          625   0.89759213 
  498000   0.74087008          625    0.9056988 
  500000    1.0266823          625   0.86058339 
Loop time of 188.458 on 1 procs for 500000 steps with 500 atoms

Performance: 1146143.653 tau/day, 2653.110 timesteps/s
86.9% CPU use with 1 MPI tasks x no OpenMP threads

MPI task timing breakdown:
Section |  min time  |  avg time  |  max time  |%varavg| %total
---------------------------------------------------------------
Pair    | 153.2      | 153.2      | 153.2      |   0.0 | 81.29
Neigh   | 22.042     | 22.042     | 22.042     |   0.0 | 11.70
Comm    | 6.5139     | 6.5139     | 6.5139     |   0.0 |  3.46
Output  | 0.036744   | 0.036744   | 0.036744   |   0.0 |  0.02
Modify  | 5.3869     | 5.3869     | 5.3869     |   0.0 |  2.86
Other   |            | 1.279      |            |       |  0.68

Nlocal:    500 ave 500 max 500 min
Histogram: 1 0 0 0 0 0 0 0 0 0
Nghost:    1772 ave 1772 max 1772 min
Histogram: 1 0 0 0 0 0 0 0 0 0
Neighs:    17887 ave 17887 max 17887 min
Histogram: 1 0 0 0 0 0 0 0 0 0

Total # of neighbors = 17887
Ave neighs/atom = 35.774
Neighbor list builds = 25000
Dangerous builds not checked
Total wall time: 0:03:08
