LAMMPS (19 Oct 2016)
# equation of state for LJ

variable temp equal 0.9
variable rho  equal 0.88

units lj
atom_style atomic

lattice    fcc ${rho}
lattice    fcc 0.88
Lattice spacing in x,y,z = 1.6565 1.6565 1.6565
region box block 0 5 0 5 0 5
create_box 1 box
Created orthogonal box = (0 0 0) to (8.28252 8.28252 8.28252)
  1 by 1 by 1 MPI processor grid
create_atoms 1 box
Created 500 atoms
mass       1 1.0

pair_style lj/cut 2.5
pair_coeff 1 1 1.0 1.0 2.5

velocity   all create ${temp} 87287
velocity   all create 0.9 87287

neighbor   0.3 bin
neigh_modify every 20 delay 0 check no

fix        1 all nvt temp ${temp} ${temp} 100
fix        1 all nvt temp 0.9 ${temp} 100
fix        1 all nvt temp 0.9 0.9 100
dump       1 all custom 70000 dump_t${temp}_r${rho}.lammpstrj id type x y z
dump       1 all custom 70000 dump_t0.9_r${rho}.lammpstrj id type x y z
dump       1 all custom 70000 dump_t0.9_r0.88.lammpstrj id type x y z
thermo     2000
thermo_style  custom step press vol temp
thermo_modify flush yes

run 500000
Neighbor list info ...
  1 neighbor list requests
  update every 20 steps, delay 0 steps, check no
  max neighbors/atom: 2000, page size: 100000
  master list distance cutoff = 2.8
  ghost atom cutoff = 2.8
  binsize = 1.4 -> bins = 6 6 6
Memory usage per processor = 3.32155 Mbytes
Step Press Volume Temp 
       0   -5.2518221    568.18182          0.9 
    2000   -2.1152146    568.18182   0.49129825 
    4000   -2.0353362    568.18182   0.48923878 
    6000   -1.8268269    568.18182   0.47491858 
    8000   -1.9659344    568.18182   0.49885228 
   10000    -1.968943    568.18182   0.51731971 
   12000   -1.8853554    568.18182   0.51577769 
   14000   -1.7159406    568.18182   0.50246681 
   16000   -1.7759064    568.18182   0.52315398 
   18000   -1.6677855    568.18182   0.52067542 
   20000   -1.6745639    568.18182   0.54013993 
   22000   -1.6863888    568.18182   0.55259914 
   24000   -1.5222304    568.18182   0.55230077 
   26000   -1.4181184    568.18182    0.5595438 
   28000   -1.4126844    568.18182    0.5808368 
   30000   -1.3389934    568.18182   0.57718754 
   32000   -1.2401369    568.18182   0.58156476 
   34000    -1.231558    568.18182   0.60603309 
   36000   -1.3989539    568.18182   0.64465227 
   38000   -1.1857884    568.18182   0.63495254 
   40000  -0.98357719    568.18182   0.62301938 
   42000  -0.96097316    568.18182   0.64405798 
   44000  -0.88977726    568.18182   0.64723569 
   46000  -0.48303387    568.18182   0.61935937 
   48000  -0.92435054    568.18182    0.6990036 
   50000  -0.63893296    568.18182   0.68059633 
   52000  -0.71783184    568.18182    0.7124308 
   54000  -0.77162388    568.18182     0.740571 
   56000  -0.29006209    568.18182   0.69517844 
   58000  -0.61420195    568.18182   0.75268461 
   60000  -0.29085612    568.18182   0.73397706 
   62000  -0.14331862    568.18182   0.73610631 
   64000  -0.04844916    568.18182   0.74857727 
   66000   0.10994671    568.18182   0.74696177 
   68000 -0.014268556    568.18182   0.78907305 
   70000   0.18114902    568.18182   0.77752655 
   72000    0.2753361    568.18182   0.78589651 
   74000 -0.021416292    568.18182   0.84917029 
   76000   0.72417865    568.18182   0.77165741 
   78000   0.30405565    568.18182   0.84372401 
   80000   0.42715524    568.18182   0.84421363 
   82000   0.79149464    568.18182   0.80909521 
   84000   0.73129078    568.18182    0.8451043 
   86000    1.4359966    568.18182   0.76925562 
   88000    1.8767514    568.18182   0.72321687 
   90000     1.936945    568.18182   0.75332581 
   92000    2.0615582    568.18182   0.74246603 
   94000    1.9624204    568.18182   0.77891998 
   96000    2.0055043    568.18182   0.80218165 
   98000    2.1666854    568.18182   0.79910183 
  100000    2.0878077    568.18182   0.81862722 
  102000     2.286206    568.18182   0.81050368 
  104000    2.4669026    568.18182   0.80125154 
  106000    2.3960293    568.18182   0.83089405 
  108000    2.7216865    568.18182   0.81221001 
  110000    2.6438014    568.18182   0.82316405 
  112000    2.3184326    568.18182   0.89624148 
  114000    2.6528149    568.18182   0.86380053 
  116000    2.5697914    568.18182   0.90389059 
  118000    2.8231823    568.18182    0.8835575 
  120000    2.8282464    568.18182   0.89712379 
  122000    3.0924486    568.18182   0.87124036 
  124000    2.8552958    568.18182   0.90712095 
  126000     2.829228    568.18182   0.93821271 
  128000      2.66407    568.18182   0.97678881 
  130000    2.9908926    568.18182   0.94981439 
  132000       2.9646    568.18182   0.96956441 
  134000    3.0783426    568.18182   0.93773207 
  136000    3.0458928    568.18182   0.95899472 
  138000    3.1142828    568.18182   0.96684706 
  140000     3.226807    568.18182   0.94681125 
  142000    3.2964175    568.18182   0.92574989 
  144000    3.1788475    568.18182    0.9650699 
  146000    3.1197886    568.18182   0.96652028 
  148000     3.085732    568.18182   0.98333878 
  150000    2.9316799    568.18182   0.99890162 
  152000    3.0186212    568.18182   0.98564956 
  154000    3.2313888    568.18182   0.94742571 
  156000    3.3749265    568.18182   0.92868331 
  158000    3.1176793    568.18182   0.96764664 
  160000    3.2897507    568.18182   0.92917027 
  162000     3.409498    568.18182   0.89661949 
  164000    3.0596486    568.18182   0.96258908 
  166000    3.0307325    568.18182   0.93549391 
  168000    2.9018813    568.18182    0.9463674 
  170000    3.0281358    568.18182   0.94432693 
  172000    2.9078098    568.18182   0.91004231 
  174000    3.0046895    568.18182   0.91145105 
  176000    3.0409511    568.18182   0.89538068 
  178000    2.8416834    568.18182   0.89595178 
  180000    2.7617429    568.18182   0.90698048 
  182000    2.7135692    568.18182    0.9157536 
  184000    2.9271324    568.18182   0.85868217 
  186000    2.8561789    568.18182   0.86334088 
  188000    2.7750461    568.18182   0.87033311 
  190000    2.7178363    568.18182   0.86827248 
  192000    2.8226448    568.18182   0.84487193 
  194000    2.7368621    568.18182   0.84837087 
  196000    2.3694337    568.18182   0.90954329 
  198000    2.5379352    568.18182    0.8677743 
  200000    2.6915225    568.18182   0.83057136 
  202000    2.7704299    568.18182   0.84117122 
  204000     2.570845    568.18182   0.85247512 
  206000    2.7041676    568.18182   0.83920398 
  208000    2.4360433    568.18182   0.87432189 
  210000    2.5038502    568.18182   0.86624303 
  212000    2.5985893    568.18182   0.84264349 
  214000    2.4063213    568.18182    0.8797401 
  216000    2.6249808    568.18182    0.8497762 
  218000    2.5586109    568.18182   0.86972447 
  220000    2.7864295    568.18182   0.82900911 
  222000    2.4815327    568.18182   0.88378095 
  224000     2.494211    568.18182   0.88677897 
  226000    2.6309998    568.18182   0.87963824 
  228000    2.2500065    568.18182   0.93943286 
  230000    2.6792494    568.18182   0.89039083 
  232000     2.581394    568.18182   0.89823042 
  234000     2.713722    568.18182   0.90722711 
  236000    2.9120705    568.18182   0.89828089 
  238000    2.9026396    568.18182   0.89720827 
  240000    2.8729443    568.18182   0.89585268 
  242000    3.0425283    568.18182   0.88231618 
  244000    2.8430736    568.18182   0.92906774 
  246000    2.9760364    568.18182   0.90910172 
  248000    2.9870106    568.18182   0.91148428 
  250000    3.0242929    568.18182   0.91347312 
  252000    2.9429824    568.18182   0.93979653 
  254000    3.0247225    568.18182   0.92184412 
  256000    2.9440842    568.18182   0.94254348 
  258000    3.0311354    568.18182   0.93967065 
  260000    2.8407327    568.18182   0.96222498 
  262000    3.1364383    568.18182   0.92953908 
  264000    2.9311262    568.18182   0.95515454 
  266000    3.0425326    568.18182   0.94185645 
  268000    2.6429457    568.18182    1.0001638 
  270000    3.2827465    568.18182   0.90956913 
  272000    3.1595226    568.18182   0.93803959 
  274000    3.0867177    568.18182   0.93478861 
  276000    3.0815054    568.18182   0.92922697 
  278000    2.9917675    568.18182   0.94574053 
  280000    2.9981893    568.18182   0.93219965 
  282000    2.7571177    568.18182   0.96125646 
  284000    3.0729501    568.18182   0.91732936 
  286000    3.0023365    568.18182   0.91149193 
  288000    2.9902334    568.18182   0.91145513 
  290000    3.0405986    568.18182   0.89053509 
  292000    2.7974219    568.18182   0.93254385 
  294000    2.7569001    568.18182   0.91699874 
  296000    2.9939382    568.18182     0.880345 
  298000    2.7764895    568.18182   0.89654811 
  300000    2.9887356    568.18182   0.86969456 
  302000    2.7947706    568.18182   0.89624593 
  304000    2.5693365    568.18182   0.92805791 
  306000    2.7545421    568.18182   0.89003233 
  308000    2.7627976    568.18182   0.87461675 
  310000    2.5801809    568.18182   0.88512516 
  312000    2.6848446    568.18182   0.87125042 
  314000    2.6094647    568.18182   0.87048478 
  316000    2.8065945    568.18182   0.85393457 
  318000     2.684572    568.18182     0.876473 
  320000    2.7017145    568.18182   0.84617309 
  322000    2.6518142    568.18182    0.8563825 
  324000    2.5509271    568.18182   0.88189007 
  326000    2.4449709    568.18182   0.89418066 
  328000    2.8251369    568.18182   0.84548817 
  330000    2.6372339    568.18182     0.859197 
  332000    2.4770004    568.18182   0.88301319 
  334000    2.7766952    568.18182   0.85903768 
  336000    2.3437526    568.18182   0.91641989 
  338000     2.662132    568.18182   0.86944769 
  340000    2.6915174    568.18182   0.87539478 
  342000    2.7446407    568.18182   0.85699201 
  344000    2.6210457    568.18182   0.89878923 
  346000    2.8081076    568.18182   0.87679723 
  348000    2.9375975    568.18182   0.86251762 
  350000    2.7727469    568.18182   0.88298516 
  352000    2.9942215    568.18182   0.87804387 
  354000    2.9318275    568.18182   0.87413464 
  356000    3.1052643    568.18182   0.86836427 
  358000    2.8922906    568.18182   0.91212284 
  360000    3.0007914    568.18182   0.88425011 
  362000    2.6953167    568.18182   0.93816889 
  364000    2.9603437    568.18182   0.89163015 
  366000    2.8669909    568.18182   0.92804882 
  368000    2.8884207    568.18182   0.92460107 
  370000    3.3027811    568.18182   0.87437672 
  372000    3.1279622    568.18182    0.8989135 
  374000    2.8565662    568.18182   0.95159999 
  376000    3.1364569    568.18182   0.91162455 
  378000    2.9382056    568.18182   0.94596835 
  380000    3.0409656    568.18182   0.92843711 
  382000    3.1058153    568.18182   0.92219755 
  384000    3.1085782    568.18182   0.91879928 
  386000     3.141747    568.18182    0.9051192 
  388000    3.0947097    568.18182   0.92473491 
  390000    3.2323155    568.18182   0.89770494 
  392000    2.9002601    568.18182   0.94902631 
  394000    2.9488109    568.18182   0.92747052 
  396000    2.9567484    568.18182   0.92172401 
  398000    2.9045263    568.18182   0.94004303 
  400000     2.817627    568.18182   0.93883728 
  402000    3.1658651    568.18182   0.89527757 
  404000    2.8820494    568.18182     0.928109 
  406000    3.0975208    568.18182   0.89074192 
  408000    3.0033994    568.18182   0.91136846 
  410000    2.7649443    568.18182    0.9221294 
  412000    2.7739537    568.18182   0.91846711 
  414000    2.7911646    568.18182   0.91460611 
  416000    2.5603926    568.18182   0.93195899 
  418000    2.8035897    568.18182   0.90042871 
  420000    2.8830398    568.18182   0.87214048 
  422000    2.7002069    568.18182   0.89088829 
  424000    2.7921563    568.18182   0.88098153 
  426000    2.9654215    568.18182   0.85742967 
  428000    2.7506646    568.18182   0.88280845 
  430000    2.6834576    568.18182   0.88797574 
  432000    2.8704177    568.18182   0.85066522 
  434000    2.5774131    568.18182   0.89924401 
  436000    2.6480431    568.18182   0.88292485 
  438000    2.6377916    568.18182   0.88411295 
  440000    2.6842162    568.18182   0.87464167 
  442000    2.5826971    568.18182   0.87643689 
  444000    2.4704835    568.18182   0.91192687 
  446000     2.611342    568.18182   0.88401243 
  448000    2.7659634    568.18182   0.85346187 
  450000    2.7860273    568.18182   0.86076153 
  452000    2.6789969    568.18182   0.87157035 
  454000    2.4047201    568.18182   0.92366994 
  456000    2.8264005    568.18182   0.86329507 
  458000    2.7318829    568.18182   0.87943132 
  460000    2.8234152    568.18182   0.87977552 
  462000    2.7656725    568.18182    0.8785662 
  464000    2.9061869    568.18182    0.8836313 
  466000    2.9934595    568.18182   0.87053124 
  468000    2.9681634    568.18182   0.88236878 
  470000    2.8510472    568.18182   0.89859951 
  472000    2.8185821    568.18182   0.91415309 
  474000    2.7857359    568.18182   0.92123514 
  476000    2.9008937    568.18182   0.91831783 
  478000    3.0594012    568.18182   0.90088048 
  480000    2.9739017    568.18182   0.92392333 
  482000    2.9471342    568.18182   0.92522385 
  484000    2.8183227    568.18182   0.92935998 
  486000    2.9873939    568.18182    0.9239948 
  488000    2.8495886    568.18182   0.93981126 
  490000    3.0837293    568.18182   0.90085294 
  492000    3.2438827    568.18182   0.88707062 
  494000    2.9641753    568.18182   0.95402187 
  496000     3.118757    568.18182   0.90251572 
  498000    3.1610042    568.18182   0.89331266 
  500000     3.030496    568.18182   0.93520915 
Loop time of 174.855 on 1 procs for 500000 steps with 500 atoms

Performance: 1235307.624 tau/day, 2859.508 timesteps/s
97.1% CPU use with 1 MPI tasks x no OpenMP threads

MPI task timing breakdown:
Section |  min time  |  avg time  |  max time  |%varavg| %total
---------------------------------------------------------------
Pair    | 140.88     | 140.88     | 140.88     |   0.0 | 80.57
Neigh   | 23.399     | 23.399     | 23.399     |   0.0 | 13.38
Comm    | 5.4338     | 5.4338     | 5.4338     |   0.0 |  3.11
Output  | 0.019287   | 0.019287   | 0.019287   |   0.0 |  0.01
Modify  | 4.1131     | 4.1131     | 4.1131     |   0.0 |  2.35
Other   |            | 1.007      |            |       |  0.58

Nlocal:    500 ave 500 max 500 min
Histogram: 1 0 0 0 0 0 0 0 0 0
Nghost:    1836 ave 1836 max 1836 min
Histogram: 1 0 0 0 0 0 0 0 0 0
Neighs:    19654 ave 19654 max 19654 min
Histogram: 1 0 0 0 0 0 0 0 0 0

Total # of neighbors = 19654
Ave neighs/atom = 39.308
Neighbor list builds = 25000
Dangerous builds not checked
Total wall time: 0:02:54
