LAMMPS (19 Oct 2016)
# equation of state for LJ

variable temp equal 0.9
variable rho  equal 1.43

units lj
atom_style atomic

lattice    fcc ${rho}
lattice    fcc 1.43
Lattice spacing in x,y,z = 1.40899 1.40899 1.40899
region box block 0 5 0 5 0 5
create_box 1 box
Created orthogonal box = (0 0 0) to (7.04495 7.04495 7.04495)
  1 by 1 by 1 MPI processor grid
create_atoms 1 box
Created 500 atoms
mass       1 1.0

pair_style lj/cut 2.5
pair_coeff 1 1 1.0 1.0 2.5

velocity   all create ${temp} 87287
velocity   all create 0.9 87287

neighbor   0.3 bin
neigh_modify every 20 delay 0 check no

fix        1 all nvt temp ${temp} ${temp} 100
fix        1 all nvt temp 0.9 ${temp} 100
fix        1 all nvt temp 0.9 0.9 100
dump       1 all custom 70000 dump_t${temp}_r${rho}.lammpstrj id type x y z
dump       1 all custom 70000 dump_t0.9_r${rho}.lammpstrj id type x y z
dump       1 all custom 70000 dump_t0.9_r1.43.lammpstrj id type x y z
thermo     2000
thermo_style  custom step press vol temp
thermo_modify flush yes

run 500000
Neighbor list info ...
  1 neighbor list requests
  update every 20 steps, delay 0 steps, check no
  max neighbors/atom: 2000, page size: 100000
  master list distance cutoff = 2.8
  ghost atom cutoff = 2.8
  binsize = 1.4 -> bins = 6 6 6
Memory usage per processor = 3.32155 Mbytes
Step Press Volume Temp 
       0    64.165917    349.65035          0.9 
    2000    67.859415    349.65035   0.46628548 
    4000    67.992748    349.65035   0.45797171 
    6000    68.072762    349.65035   0.46110753 
    8000    68.330202    349.65035   0.44435745 
   10000    68.175094    349.65035    0.4762351 
   12000    68.210445    349.65035   0.48397956 
   14000    68.295185    349.65035   0.48573413 
   16000    68.245541    349.65035   0.50472854 
   18000     68.52848    349.65035   0.48598232 
   20000    68.612034    349.65035    0.4921663 
   22000    68.668411    349.65035   0.50287376 
   24000    68.572237    349.65035   0.53099442 
   26000    68.766468    349.65035    0.5257394 
   28000    68.774399    349.65035   0.54353401 
   30000    68.963321    349.65035   0.53995566 
   32000    69.050769    349.65035   0.54909895 
   34000    68.985794    349.65035   0.57586912 
   36000    69.161456    349.65035   0.57603052 
   38000    69.256555    349.65035   0.58561862 
   40000    69.329855    349.65035   0.59795578 
   42000    69.473851    349.65035   0.60298027 
   44000    69.539603    349.65035   0.61598462 
   46000    69.548079    349.65035    0.6369658 
   48000    69.855907    349.65035    0.6207686 
   50000    69.779734    349.65035     0.652497 
   52000    69.917723    349.65035   0.66103565 
   54000    70.168513    349.65035   0.65353998 
   56000    70.161464    349.65035   0.67590707 
   58000    70.241913    349.65035   0.69055198 
   60000    70.574978    349.65035   0.67460068 
   62000     70.68659    349.65035   0.68608053 
   64000    70.933364    349.65035   0.67889221 
   66000    70.872627    349.65035   0.70978256 
   68000    70.939268    349.65035   0.72632616 
   70000    71.124001    349.65035   0.72950123 
   72000    71.373964    349.65035   0.72364846 
   74000    71.285659    349.65035   0.75727061 
   76000     71.02255    349.65035   0.81113507 
   78000    71.528598    349.65035   0.77495782 
   80000    71.602883    349.65035   0.79030314 
   82000    71.802519    349.65035   0.78999006 
   84000    71.709481    349.65035   0.82400521 
   86000    72.051712    349.65035   0.80533105 
   88000    71.982424    349.65035   0.83557606 
   90000    72.290823    349.65035   0.82287226 
   92000    72.026935    349.65035   0.87513359 
   94000    72.546828    349.65035   0.83534721 
   96000    72.513411    349.65035   0.85888404 
   98000    72.287691    349.65035   0.90536191 
  100000    72.918653    349.65035    0.8530251 
  102000    72.317058    349.65035   0.94146035 
  104000    72.680691    349.65035    0.9159966 
  106000    72.939619    349.65035   0.90262744 
  108000    73.075657    349.65035   0.90299481 
  110000    72.823155    349.65035   0.95089555 
  112000    73.028254    349.65035   0.93981589 
  114000    72.986334    349.65035   0.95799998 
  116000    73.224489    349.65035    0.9451869 
  118000    73.210263    349.65035   0.95511687 
  120000    73.191052    349.65035   0.96997311 
  122000     73.05001    349.65035   0.99604059 
  124000    73.538212    349.65035   0.94457827 
  126000    73.400611    349.65035   0.96976467 
  128000    73.704618    349.65035   0.93579811 
  130000    73.872358    349.65035    0.9205826 
  132000    73.621503    349.65035   0.95211538 
  134000    73.437231    349.65035   0.97612417 
  136000    73.774889    349.65035   0.93479477 
  138000    73.523542    349.65035   0.96185236 
  140000    73.201801    349.65035    0.9963934 
  142000     73.58408    349.65035   0.94618858 
  144000     73.26406    349.65035   0.97515974 
  146000    73.674125    349.65035   0.91853648 
  148000    72.929723    349.65035   0.99631333 
  150000    73.222969    349.65035   0.95272056 
  152000    73.302552    349.65035   0.93213831 
  154000    72.986023    349.65035    0.9576209 
  156000    72.769144    349.65035   0.96974959 
  158000    73.106221    349.65035    0.9184434 
  160000    73.123526    349.65035   0.90205526 
  162000    72.875173    349.65035   0.91886568 
  164000    73.376742    349.65035    0.8474901 
  166000    72.836406    349.65035   0.90009213 
  168000    72.888313    349.65035   0.88115686 
  170000    72.701268    349.65035    0.8927468 
  172000    72.854241    349.65035   0.86381255 
  174000    72.690564    349.65035   0.87333369 
  176000    72.709016    349.65035   0.86271297 
  178000     72.32817    349.65035   0.89808204 
  180000     72.17355    349.65035   0.90744651 
  182000    72.510702    349.65035   0.86043861 
  184000    72.348801    349.65035   0.87422903 
  186000    72.273153    349.65035   0.87893584 
  188000    72.434147    349.65035   0.85356385 
  190000    72.225752    349.65035    0.8737916 
  192000    72.519702    349.65035   0.83695007 
  194000    72.544129    349.65035   0.83401738 
  196000    72.358984    349.65035   0.85651074 
  198000    72.313551    349.65035   0.86082406 
  200000    72.340724    349.65035   0.85871893 
  202000    72.279527    349.65035   0.86670975 
  204000     72.41454    349.65035   0.85431598 
  206000    72.308615    349.65035   0.87200541 
  208000    72.257095    349.65035   0.88384507 
  210000    72.614433    349.65035   0.84839631 
  212000    72.604486    349.65035   0.85584176 
  214000    72.898515    349.65035   0.83049962 
  216000    72.608152    349.65035    0.8709411 
  218000      72.8646    349.65035   0.85028333 
  220000    72.689667    349.65035   0.88024154 
  222000    72.590458    349.65035   0.90175615 
  224000     72.85723    349.65035   0.88060662 
  226000    72.408363    349.65035   0.94254906 
  228000    73.092749    349.65035    0.8713606 
  230000    73.066543    349.65035   0.88399103 
  232000     72.81378    349.65035   0.92354578 
  234000    72.913164    349.65035   0.91981677 
  236000    72.910539    349.65035    0.9309594 
  238000    72.893501    349.65035   0.94083291 
  240000    73.077647    349.65035   0.92716051 
  242000    72.800851    349.65035   0.96594831 
  244000    72.866699    349.65035   0.96573365 
  246000    73.157423    349.65035   0.93729929 
  248000    73.551676    349.65035   0.89780886 
  250000    73.102502    349.65035   0.95297375 
  252000    73.186547    349.65035   0.94868236 
  254000    73.042105    349.65035   0.96723732 
  256000    73.127075    349.65035   0.95902539 
  258000    73.334511    349.65035   0.93482595 
  260000    73.433076    349.65035   0.92394969 
  262000    73.119857    349.65035   0.95916662 
  264000    73.550927    349.65035   0.90612354 
  266000    73.456184    349.65035    0.9142459 
  268000    73.188881    349.65035   0.94151676 
  270000    73.405429    349.65035    0.9110233 
  272000    73.150232    349.65035   0.93503826 
  274000    73.246243    349.65035   0.91573918 
  276000     73.22684    349.65035   0.91132588 
  278000    73.014466    349.65035   0.93020748 
  280000    73.048236    349.65035   0.91725264 
  282000    73.055536    349.65035   0.91004972 
  284000    72.856308    349.65035    0.9250237 
  286000    72.726512    349.65035   0.93091529 
  288000    72.696593    349.65035   0.92701183 
  290000    73.214474    349.65035   0.85583836 
  292000    72.973531    349.65035   0.87669876 
  294000    72.626368    349.65035   0.90794641 
  296000    72.832992    349.65035    0.8786537 
  298000    72.675329    349.65035   0.88750283 
  300000    72.616525    349.65035   0.88769474 
  302000    72.348464    349.65035   0.91317111 
  304000    72.225552    349.65035   0.92193911 
  306000     72.49844    349.65035   0.88392551 
  308000    72.527368    349.65035   0.87506346 
  310000    72.548004    349.65035   0.86890541 
  312000    72.553931    349.65035   0.86499756 
  314000    72.553117    349.65035   0.86166672 
  316000    72.650848    349.65035   0.85034853 
  318000     72.83933    349.65035   0.82512181 
  320000    72.358972    349.65035    0.8805663 
  322000    72.354601    349.65035   0.88302236 
  324000    72.553264    349.65035   0.85929914 
  326000    72.531275    349.65035   0.86368969 
  328000    72.582761    349.65035   0.86109761 
  330000    72.605524    349.65035   0.86175715 
  332000    72.547668    349.65035   0.87069861 
  334000    72.854966    349.65035   0.83955925 
  336000    72.710086    349.65035   0.86149283 
  338000      72.9147    349.65035   0.84267006 
  340000    72.429599    349.65035   0.90638688 
  342000    72.961948    349.65035   0.85156734 
  344000     72.46041    349.65035    0.9186448 
  346000    72.651674    349.65035   0.90334889 
  348000    72.981042    349.65035    0.8712362 
  350000     72.83846    349.65035   0.89742461 
  352000    73.077529    349.65035   0.87622282 
  354000    72.984356    349.65035   0.89093638 
  356000    73.077009    349.65035   0.88867776 
  358000    73.092279    349.65035   0.89585064 
  360000    72.778906    349.65035   0.93951594 
  362000    73.336239    349.65035   0.87847437 
  364000    72.984502    349.65035    0.9295203 
  366000    72.999052    349.65035   0.93168711 
  368000    73.173155    349.65035   0.91527769 
  370000    73.189232    349.65035   0.91982465 
  372000    72.982718    349.65035   0.94612508 
  374000    73.146619    349.65035   0.93046917 
  376000     73.15281    349.65035   0.93276629 
  378000    73.236963    349.65035   0.92641831 
  380000    73.595609    349.65035   0.88567235 
  382000       72.982    349.65035   0.95758588 
  384000    72.872306    349.65035    0.9684199 
  386000    73.515544    349.65035   0.89389549 
  388000    73.452417    349.65035   0.89816536 
  390000    73.132188    349.65035   0.93446608 
  392000    73.226382    349.65035   0.91985041 
  394000    73.430475    349.65035   0.89419161 
  396000    72.657678    349.65035   0.97873203 
  398000    73.068336    349.65035   0.92536701 
  400000    72.997444    349.65035   0.92778957 
  402000    72.973215    349.65035   0.92397885 
  404000      72.9142    349.65035   0.92614696 
  406000    73.216879    349.65035   0.88227461 
  408000    72.976354    349.65035   0.90403207 
  410000     73.09605    349.65035     0.882684 
  412000     72.87505    349.65035   0.90086865 
  414000    72.786258    349.65035   0.90427146 
  416000    72.979999    349.65035   0.87408092 
  418000    72.798815    349.65035   0.88900123 
  420000      72.5399    349.65035    0.9142391 
  422000    72.882085    349.65035    0.8658673 
  424000    72.673776    349.65035   0.88754404 
  426000    72.448417    349.65035   0.90650356 
  428000    72.440895    349.65035   0.90349536 
  430000    72.532578    349.65035   0.88781794 
  432000      72.6763    349.65035   0.86736755 
  434000    72.516103    349.65035   0.88392413 
  436000    72.768882    349.65035   0.85152273 
  438000    72.994992    349.65035   0.82309422 
  440000    72.665878    349.65035   0.85884261 
  442000    72.525431    349.65035    0.8749597 
  444000    72.493252    349.65035   0.87895904 
  446000    72.474653    349.65035   0.88038937 
  448000    72.183906    349.65035   0.91614421 
  450000    72.590806    349.65035   0.87000115 
  452000    72.653998    349.65035   0.86427643 
  454000    72.520476    349.65035   0.88329248 
  456000    72.740471    349.65035   0.85974482 
  458000    72.801413    349.65035   0.85895962 
  460000    72.930554    349.65035   0.84741208 
  462000    72.534761    349.65035   0.90111545 
  464000    72.619873    349.65035   0.89639702 
  466000    72.716065    349.65035   0.89217829 
  468000    72.967836    349.65035    0.8677579 
  470000    72.863636    349.65035   0.88912132 
  472000     72.86872    349.65035   0.89359277 
  474000    72.637698    349.65035   0.92933792 
  476000    72.938459    349.65035   0.89956283 
  478000    72.974207    349.65035   0.90285233 
  480000    73.037248    349.65035   0.90150934 
  482000    72.879232    349.65035   0.92539582 
  484000    73.042349    349.65035   0.91374334 
  486000    73.266638    349.65035   0.89027535 
  488000    73.073623    349.65035   0.91810654 
  490000    73.133574    349.65035   0.91471655 
  492000    73.125239    349.65035   0.92083414 
  494000    73.277657    349.65035   0.90529468 
  496000    73.303425    349.65035   0.90587215 
  498000    72.978232    349.65035   0.94527254 
  500000    72.678946    349.65035   0.98095461 
Loop time of 330.103 on 1 procs for 500000 steps with 500 atoms

Performance: 654342.127 tau/day, 1514.681 timesteps/s
93.3% CPU use with 1 MPI tasks x no OpenMP threads

MPI task timing breakdown:
Section |  min time  |  avg time  |  max time  |%varavg| %total
---------------------------------------------------------------
Pair    | 281.96     | 281.96     | 281.96     |   0.0 | 85.41
Neigh   | 33.37      | 33.37      | 33.37      |   0.0 | 10.11
Comm    | 7.967      | 7.967      | 7.967      |   0.0 |  2.41
Output  | 0.048451   | 0.048451   | 0.048451   |   0.0 |  0.01
Modify  | 5.2938     | 5.2938     | 5.2938     |   0.0 |  1.60
Other   |            | 1.468      |            |       |  0.44

Nlocal:    500 ave 500 max 500 min
Histogram: 1 0 0 0 0 0 0 0 0 0
Nghost:    2184 ave 2184 max 2184 min
Histogram: 1 0 0 0 0 0 0 0 0 0
Neighs:    33974 ave 33974 max 33974 min
Histogram: 1 0 0 0 0 0 0 0 0 0

Total # of neighbors = 33974
Ave neighs/atom = 67.948
Neighbor list builds = 25000
Dangerous builds not checked
Total wall time: 0:05:30
