LAMMPS (19 Oct 2016)
# equation of state for LJ

variable temp equal 0.9
variable rho  equal 1.67

units lj
atom_style atomic

lattice    fcc ${rho}
lattice    fcc 1.67
Lattice spacing in x,y,z = 1.33797 1.33797 1.33797
region box block 0 5 0 5 0 5
create_box 1 box
Created orthogonal box = (0 0 0) to (6.68987 6.68987 6.68987)
  1 by 1 by 1 MPI processor grid
create_atoms 1 box
Created 500 atoms
mass       1 1.0

pair_style lj/cut 2.5
pair_coeff 1 1 1.0 1.0 2.5

velocity   all create ${temp} 87287
velocity   all create 0.9 87287

neighbor   0.3 bin
neigh_modify every 20 delay 0 check no

fix        1 all nvt temp ${temp} ${temp} 100
fix        1 all nvt temp 0.9 ${temp} 100
fix        1 all nvt temp 0.9 0.9 100
dump       1 all custom 70000 dump_t${temp}_r${rho}.lammpstrj id type x y z
dump       1 all custom 70000 dump_t0.9_r${rho}.lammpstrj id type x y z
dump       1 all custom 70000 dump_t0.9_r1.67.lammpstrj id type x y z
thermo     2000
thermo_style  custom step press vol temp
thermo_modify flush yes

run 500000
Neighbor list info ...
  1 neighbor list requests
  update every 20 steps, delay 0 steps, check no
  max neighbors/atom: 2000, page size: 100000
  master list distance cutoff = 2.8
  ghost atom cutoff = 2.8
  binsize = 1.4 -> bins = 5 5 5
Memory usage per processor = 3.36492 Mbytes
Step Press Volume Temp 
       0     185.7267     299.4012          0.9 
    2000    189.48734     299.4012   0.45358932 
    4000    189.49552     299.4012   0.46091811 
    6000    189.75585     299.4012   0.44576181 
    8000    189.59415     299.4012   0.47600005 
   10000    189.85774     299.4012    0.4613809 
   12000    189.79189     299.4012   0.48013613 
   14000    189.87934     299.4012   0.48414655 
   16000    189.83334     299.4012   0.50109564 
   18000    190.12477     299.4012   0.48663064 
   20000    190.18126     299.4012   0.49725507 
   22000    190.35544     299.4012   0.49539818 
   24000    190.34119     299.4012   0.51493906 
   26000    190.59649     299.4012   0.50533778 
   28000    190.35838     299.4012   0.54879917 
   30000    190.60596     299.4012   0.54234581 
   32000    190.73046     299.4012   0.54690839 
   34000    190.63053     299.4012   0.57967173 
   36000      191.128     299.4012   0.54709552 
   38000    191.14791     299.4012    0.5642556 
   40000    191.42834     299.4012   0.55660312 
   42000    191.38001     299.4012   0.58299707 
   44000    191.42559     299.4012   0.60023523 
   46000     191.7629     299.4012   0.58720661 
   48000    191.76685     299.4012   0.60835004 
   50000    191.67841     299.4012   0.64016626 
   52000    191.93973     299.4012   0.63441408 
   54000    191.80471     299.4012   0.67233799 
   56000    192.29727     299.4012   0.64437227 
   58000    192.32232     299.4012   0.66508883 
   60000    192.71168     299.4012    0.6481154 
   62000    192.33183     299.4012   0.71246024 
   64000     192.2733     299.4012   0.74192572 
   66000    192.72871     299.4012   0.71883455 
   68000    192.63963     299.4012   0.75139444 
   70000    192.99467     299.4012   0.73813207 
   72000    192.78802     299.4012   0.78429356 
   74000    193.24529     299.4012    0.7600657 
   76000    193.52154     299.4012   0.75507559 
   78000    193.53165     299.4012   0.77882294 
   80000    193.39428     299.4012    0.8158208 
   82000     193.5421     299.4012   0.82369902 
   84000    194.01829     299.4012   0.79685358 
   86000    193.75523     299.4012   0.84724517 
   88000    193.92299     299.4012   0.85319095 
   90000     194.0007     299.4012   0.86512849 
   92000    194.43029     299.4012   0.84276362 
   94000    194.68842     299.4012   0.83872185 
   96000    194.74207     299.4012   0.85346653 
   98000    195.10666     299.4012   0.83605205 
  100000    194.68887     299.4012   0.89919554 
  102000    194.78126     299.4012   0.90949592 
  104000    195.03946     299.4012   0.90015761 
  106000    195.47888     299.4012   0.87238009 
  108000    195.37842     299.4012   0.89923722 
  110000    195.43683     299.4012   0.90991341 
  112000    195.52951     299.4012   0.91633009 
  114000    195.68934     299.4012   0.91307783 
  116000    195.36259     299.4012   0.95949979 
  118000    195.63999     299.4012   0.94299887 
  120000    195.83806     299.4012   0.93564128 
  122000     195.9398     299.4012   0.93321159 
  124000    196.20038     299.4012    0.9136466 
  126000    196.14577     299.4012    0.9253516 
  128000    195.76479     299.4012   0.97204005 
  130000     195.9917     299.4012   0.95420316 
  132000    196.04683     299.4012   0.94983571 
  134000    195.71024     299.4012   0.98615172 
  136000    195.90001     299.4012   0.96591664 
  138000    195.73424     299.4012   0.98077459 
  140000    195.77002     299.4012   0.97530232 
  142000    195.71034     299.4012   0.97665018 
  144000    196.19241     299.4012   0.91899312 
  146000    195.78328     299.4012   0.95323796 
  148000    196.01857     299.4012   0.91854111 
  150000    196.00194     299.4012   0.91280417 
  152000    195.47155     299.4012   0.95502044 
  154000    195.61209     299.4012   0.93068703 
  156000    196.20947     299.4012   0.85476034 
  158000    195.76336     299.4012   0.89096644 
  160000     195.6971     299.4012   0.88405665 
  162000    195.13867     299.4012   0.92828885 
  164000    195.19214     299.4012    0.9100741 
  166000    195.21561     299.4012   0.89471855 
  168000    195.27693     299.4012   0.87786525 
  170000    195.20262     299.4012   0.87391343 
  172000     194.9605     299.4012   0.88695374 
  174000    195.25392     299.4012    0.8466964 
  176000    194.84633     299.4012   0.87914988 
  178000    194.99579     299.4012   0.85434318 
  180000    195.04401     299.4012   0.83988221 
  182000    194.56263     299.4012   0.88403115 
  184000    194.86771     299.4012   0.84495546 
  186000    194.55936     299.4012   0.87288863 
  188000    194.59918     299.4012   0.86137076 
  190000    194.39736     299.4012   0.87785435 
  192000    194.72618     299.4012   0.84097902 
  194000     194.6094     299.4012   0.85140897 
  196000     194.6491     299.4012    0.8450859 
  198000    194.61903     299.4012   0.84864703 
  200000    194.47044     299.4012   0.86324151 
  202000    194.89715     299.4012   0.82063828 
  204000    194.91877     299.4012   0.82364143 
  206000     194.4736     299.4012   0.87294438 
  208000    194.70345     299.4012   0.85479159 
  210000    195.16543     299.4012   0.81202096 
  212000     194.4861     299.4012   0.88891433 
  214000    194.91204     299.4012   0.85138309 
  216000    194.72934     299.4012   0.87956122 
  218000    194.96535     299.4012   0.86233641 
  220000    195.11633     299.4012   0.85601212 
  222000    194.33733     299.4012   0.94635118 
  224000    195.28493     299.4012   0.85810545 
  226000    194.85936     299.4012      0.91293 
  228000    194.98184     299.4012   0.91028199 
  230000    194.99276     299.4012   0.91900867 
  232000    195.32335     299.4012   0.89528383 
  234000    195.30074     299.4012   0.90602587 
  236000    195.19639     299.4012   0.92520723 
  238000    194.93607     299.4012   0.96110108 
  240000    195.74027     299.4012   0.88613401 
  242000     195.1039     299.4012   0.95980191 
  244000    195.53683     299.4012   0.92150028 
  246000    195.25292     299.4012   0.95887919 
  248000     195.7297     299.4012   0.91478485 
  250000    195.80426     299.4012   0.91065755 
  252000     195.6702     299.4012   0.92889519 
  254000    195.95887     299.4012   0.90524775 
  256000     195.6692     299.4012   0.93628404 
  258000    195.68257     299.4012   0.93553822 
  260000    195.69721     299.4012   0.93463335 
  262000    195.71217     299.4012    0.9331719 
  264000    195.49438     299.4012   0.95456672 
  266000    195.51619     299.4012   0.94937834 
  268000    195.48675     299.4012   0.94848611 
  270000    195.50831     299.4012   0.94243331 
  272000    195.77741     299.4012   0.90917522 
  274000    195.38838     299.4012   0.94515379 
  276000     195.1246     299.4012   0.96421668 
  278000    195.58156     299.4012   0.91003623 
  280000    195.10057     299.4012   0.95262238 
  282000    195.38594     299.4012   0.91456592 
  284000    195.25133     299.4012   0.92182981 
  286000    195.36388     299.4012   0.89903599 
  288000    195.17447     299.4012   0.91179551 
  290000    195.06285     299.4012   0.91430811 
  292000    195.41409     299.4012    0.8694208 
  294000    194.92417     299.4012   0.91251768 
  296000    194.81683     299.4012    0.9160487 
  298000    194.74595     299.4012   0.91363398 
  300000    194.81633     299.4012   0.89837735 
  302000    194.84451     299.4012   0.89065824 
  304000    194.95541     299.4012   0.87094828 
  306000    194.99059     299.4012   0.86060957 
  308000    194.96357     299.4012   0.85847038 
  310000    194.80199     299.4012   0.87063512 
  312000    195.04624     299.4012   0.84166371 
  314000    194.54319     299.4012   0.89056186 
  316000    194.60886     299.4012   0.88190765 
  318000    194.35056     299.4012   0.90531225 
  320000    194.94461     299.4012   0.84257012 
  322000    194.86008     299.4012   0.85091041 
  324000    194.99091     299.4012   0.83676774 
  326000    194.53528     299.4012   0.88647863 
  328000    194.77381     299.4012   0.86391035 
  330000    195.05049     299.4012   0.83503249 
  332000    194.84828     299.4012    0.8616885 
  334000    194.98139     299.4012   0.85112228 
  336000    194.73214     299.4012   0.88356131 
  338000    194.65725     299.4012   0.89682468 
  340000    195.30521     299.4012   0.83242649 
  342000      195.173     299.4012   0.85368521 
  344000    195.14514     299.4012   0.86367855 
  346000    194.78994     299.4012   0.90849569 
  348000    195.38721     299.4012   0.85354069 
  350000    195.00018     299.4012   0.90082694 
  352000    195.54519     299.4012   0.85202743 
  354000    195.31496     299.4012   0.88366871 
  356000    195.27786     299.4012   0.89400191 
  358000    195.09935     299.4012   0.92013333 
  360000    195.23819     299.4012   0.91245603 
  362000    195.42441     299.4012    0.9003765 
  364000    195.53434     299.4012    0.8968697 
  366000    195.31722     299.4012   0.92341663 
  368000    195.44716     299.4012    0.9186621 
  370000    195.57349     299.4012   0.90886242 
  372000    195.24662     299.4012   0.94794474 
  374000    195.31725     299.4012   0.94403093 
  376000     195.2811     299.4012    0.9530996 
  378000    195.32879     299.4012   0.94897317 
  380000    195.94401     299.4012   0.88555386 
  382000    195.67817     299.4012   0.91730994 
  384000    195.64988     299.4012   0.91935615 
  386000    195.31525     299.4012   0.95538506 
  388000    195.34044     299.4012   0.95127359 
  390000    195.56518     299.4012   0.92596655 
  392000    195.52048     299.4012   0.92880025 
  394000    195.43729     299.4012   0.93388305 
  396000    195.58001     299.4012   0.91421524 
  398000    195.53062     299.4012   0.91704889 
  400000    195.33074     299.4012   0.93126514 
  402000    195.52935     299.4012   0.90542196 
  404000    195.27593     299.4012   0.92399675 
  406000    195.31291     299.4012   0.91410249 
  408000    195.50125     299.4012   0.88745476 
  410000    195.22942     299.4012   0.90964223 
  412000    195.35692     299.4012   0.89051811 
  414000    195.41294     299.4012   0.87692947 
  416000     194.8051     299.4012   0.93227233 
  418000    195.23712     299.4012   0.88104298 
  420000    195.40251     299.4012   0.85702482 
  422000    195.16216     299.4012   0.87477402 
  424000      195.089     299.4012   0.87687112 
  426000    194.97495     299.4012   0.88326758 
  428000    195.27424     299.4012   0.84776606 
  430000    194.57061     299.4012   0.91568518 
  432000    194.63974     299.4012   0.90304931 
  434000    194.82058     299.4012   0.88144787 
  436000    194.90511     299.4012   0.86862563 
  438000    194.61905     299.4012   0.89745742 
  440000    194.77293     299.4012   0.87765957 
  442000      194.468     299.4012   0.90573469 
  444000     195.0463     299.4012   0.84543305 
  446000    194.62916     299.4012   0.88816785 
  448000    194.78504     299.4012   0.87323434 
  450000    195.12815     299.4012   0.83870597 
  452000     194.6242     299.4012   0.89130376 
  454000    194.67234     299.4012   0.88930087 
  456000    194.71345     299.4012    0.8878982 
  458000    194.96278     299.4012   0.86273961 
  460000    194.87485     299.4012   0.87760948 
  462000    194.89321     299.4012    0.8787559 
  464000    195.02373     299.4012   0.86981221 
  466000    195.16399     299.4012   0.86325144 
  468000    194.69251     299.4012   0.91903034 
  470000    194.55016     299.4012   0.94074474 
  472000    195.46518     299.4012   0.85068095 
  474000    195.00452     299.4012   0.90622544 
  476000    194.93029     299.4012   0.92144048 
  478000    195.22098     299.4012    0.8987509 
  480000    195.32223     299.4012   0.89372396 
  482000    194.78313     299.4012   0.95965416 
  484000    194.85014     299.4012   0.95718443 
  486000    195.24598     299.4012   0.92020181 
  488000    195.18521     299.4012   0.93454755 
  490000    195.59285     299.4012   0.89417679 
  492000    195.72193     299.4012   0.88676415 
  494000    195.60522     299.4012   0.90399828 
  496000    195.23611     299.4012   0.94555767 
  498000    195.76862     299.4012   0.89220041 
  500000     195.3829     299.4012   0.93493572 
Loop time of 353.039 on 1 procs for 500000 steps with 500 atoms

Performance: 611830.485 tau/day, 1416.274 timesteps/s
94.5% CPU use with 1 MPI tasks x no OpenMP threads

MPI task timing breakdown:
Section |  min time  |  avg time  |  max time  |%varavg| %total
---------------------------------------------------------------
Pair    | 293.62     | 293.62     | 293.62     |   0.0 | 83.17
Neigh   | 42.709     | 42.709     | 42.709     |   0.0 | 12.10
Comm    | 9.7551     | 9.7551     | 9.7551     |   0.0 |  2.76
Output  | 0.030225   | 0.030225   | 0.030225   |   0.0 |  0.01
Modify  | 5.1116     | 5.1116     | 5.1116     |   0.0 |  1.45
Other   |            | 1.817      |            |       |  0.51

Nlocal:    500 ave 500 max 500 min
Histogram: 1 0 0 0 0 0 0 0 0 0
Nghost:    2930 ave 2930 max 2930 min
Histogram: 1 0 0 0 0 0 0 0 0 0
Neighs:    35763 ave 35763 max 35763 min
Histogram: 1 0 0 0 0 0 0 0 0 0

Total # of neighbors = 35763
Ave neighs/atom = 71.526
Neighbor list builds = 25000
Dangerous builds not checked
Total wall time: 0:05:53
