LAMMPS (19 Oct 2016)
# equation of state for LJ

variable temp equal 0.9
variable rho  equal 1.25

units lj
atom_style atomic

lattice    fcc ${rho}
lattice    fcc 1.25
Lattice spacing in x,y,z = 1.47361 1.47361 1.47361
region box block 0 5 0 5 0 5
create_box 1 box
Created orthogonal box = (0 0 0) to (7.36806 7.36806 7.36806)
  1 by 1 by 1 MPI processor grid
create_atoms 1 box
Created 500 atoms
mass       1 1.0

pair_style lj/cut 2.5
pair_coeff 1 1 1.0 1.0 2.5

velocity   all create ${temp} 87287
velocity   all create 0.9 87287

neighbor   0.3 bin
neigh_modify every 20 delay 0 check no

fix        1 all nvt temp ${temp} ${temp} 100
fix        1 all nvt temp 0.9 ${temp} 100
fix        1 all nvt temp 0.9 0.9 100
dump       1 all custom 70000 dump_t${temp}_r${rho}.lammpstrj id type x y z
dump       1 all custom 70000 dump_t0.9_r${rho}.lammpstrj id type x y z
dump       1 all custom 70000 dump_t0.9_r1.25.lammpstrj id type x y z
thermo     2000
thermo_style  custom step press vol temp
thermo_modify flush yes

run 500000
Neighbor list info ...
  1 neighbor list requests
  update every 20 steps, delay 0 steps, check no
  max neighbors/atom: 2000, page size: 100000
  master list distance cutoff = 2.8
  ghost atom cutoff = 2.8
  binsize = 1.4 -> bins = 6 6 6
Memory usage per processor = 3.32155 Mbytes
Step Press Volume Temp 
       0    20.406006          400          0.9 
    2000    23.766099          400   0.46963965 
    4000    24.037238          400   0.44134733 
    6000    23.973306          400   0.46189847 
    8000    24.052875          400   0.46630276 
   10000    24.056371          400   0.48005309 
   12000     24.11863          400    0.4828101 
   14000    24.178204          400   0.48780704 
   16000    24.118123          400   0.50707005 
   18000    24.248976          400   0.50619377 
   20000    24.241955          400   0.52283575 
   22000     24.32477          400   0.52807266 
   24000    24.377508          400   0.53864471 
   26000    24.558425          400   0.53423676 
   28000    24.745831          400   0.52681996 
   30000     24.83551          400   0.53496315 
   32000    24.696786          400   0.57176033 
   34000    24.790853          400   0.57914583 
   36000    24.804854          400   0.59632394 
   38000    25.015852          400    0.5905423 
   40000    25.267474          400   0.57676011 
   42000    25.245331          400   0.60118448 
   44000    25.452059          400   0.59753242 
   46000    25.301585          400   0.63772259 
   48000    25.306701          400   0.66152342 
   50000    25.914858          400   0.60450232 
   52000    25.701766          400   0.65302205 
   54000    25.744439          400   0.66868376 
   56000    25.579705          400   0.71451672 
   58000    26.093728          400   0.67023569 
   60000    26.061047          400   0.69766919 
   62000    26.354709          400   0.68285108 
   64000     26.39768          400   0.70137321 
   66000    26.374063          400   0.72805738 
   68000    26.477817          400    0.7399368 
   70000    26.565335          400    0.7497802 
   72000    26.463999          400   0.78630962 
   74000    26.805286          400   0.76868288 
   76000    26.919348          400   0.77635652 
   78000    27.357634          400     0.740602 
   80000    27.107486          400    0.7990052 
   82000    27.202975          400   0.80936803 
   84000    27.341527          400   0.81158705 
   86000    27.392632          400   0.82803212 
   88000    27.542381          400   0.83022638 
   90000    27.563399          400   0.84920729 
   92000    27.727981          400   0.84779461 
   94000    27.767387          400   0.86448663 
   96000    28.010499          400   0.85345726 
   98000    27.942589          400   0.88082916 
  100000    27.756285          400   0.92637827 
  102000    28.177613          400   0.88912179 
  104000    28.240208          400    0.8999526 
  106000    27.927757          400   0.95434313 
  108000    28.436227          400   0.90607878 
  110000    28.439427          400   0.91877378 
  112000    28.196197          400   0.96599466 
  114000    28.439951          400   0.94543996 
  116000    28.173993          400   0.99251853 
  118000    28.625615          400   0.94288092 
  120000    28.746973          400   0.93685222 
  122000    28.490757          400   0.97793721 
  124000    28.929611          400   0.92972446 
  126000    28.389972          400    1.0030114 
  128000    28.779026          400   0.95619465 
  130000    28.539557          400   0.98998077 
  132000    28.819336          400   0.95702448 
  134000    28.960953          400   0.93588923 
  136000    28.816594          400   0.95153222 
  138000    28.754734          400   0.95536138 
  140000    28.552949          400   0.97366345 
  142000    28.588865          400   0.96597736 
  144000    28.971343          400   0.90709243 
  146000    28.775171          400   0.92251677 
  148000    28.515102          400   0.94732422 
  150000    28.397947          400    0.9499899 
  152000    28.451064          400    0.9363522 
  154000    28.279754          400   0.94144036 
  156000    28.412199          400   0.91429047 
  158000    28.379511          400   0.90576765 
  160000      28.1486          400   0.91979974 
  162000    27.893983          400   0.94386013 
  164000    28.222151          400   0.88688191 
  166000    27.778887          400   0.93205742 
  168000    28.037123          400   0.88866731 
  170000     27.84186          400   0.90216546 
  172000    27.901189          400   0.88299296 
  174000    27.657589          400   0.90439707 
  176000    27.678904          400   0.89498891 
  178000    27.852944          400   0.86458618 
  180000    27.899897          400   0.85275024 
  182000    27.717603          400   0.87026743 
  184000    27.618965          400   0.87715442 
  186000     27.86003          400    0.8403672 
  188000     27.77698          400   0.84982595 
  190000    27.701561          400   0.85536136 
  192000    27.841003          400   0.83517789 
  194000    27.459501          400   0.88817903 
  196000    28.080006          400   0.80775213 
  198000    27.611675          400   0.86813424 
  200000    27.984298          400   0.82372502 
  202000    27.788901          400   0.84973774 
  204000    27.917967          400   0.84301074 
  206000    27.831055          400   0.85669623 
  208000    27.917925          400   0.85286651 
  210000    27.645282          400   0.89595568 
  212000    27.708718          400   0.89176257 
  214000    27.972458          400   0.86930869 
  216000    28.111199          400   0.86036036 
  218000    28.051068          400   0.87984477 
  220000    27.918198          400   0.90312313 
  222000     27.86552          400   0.91959553 
  224000    28.035149          400   0.91023895 
  226000    28.290798          400   0.88288399 
  228000     27.89895          400    0.9459223 
  230000    27.984051          400    0.9446571 
  232000    28.646915          400   0.86829635 
  234000    28.200739          400   0.93206184 
  236000    28.398172          400   0.91536647 
  238000    28.302039          400   0.93238293 
  240000    28.264795          400   0.95090991 
  242000    28.218865          400   0.96020032 
  244000    28.423912          400   0.94031843 
  246000    28.507327          400   0.92978958 
  248000    28.499461          400   0.93673569 
  250000    28.120213          400   0.99071052 
  252000    28.254635          400   0.97398629 
  254000    28.545485          400   0.93854473 
  256000    28.562876          400   0.93655722 
  258000    28.463356          400   0.94611785 
  260000    28.258596          400   0.97541118 
  262000    28.603669          400   0.92134938 
  264000    28.478886          400   0.93762136 
  266000    28.730374          400   0.90414086 
  268000    28.463216          400   0.93067888 
  270000    28.344022          400   0.94116965 
  272000    28.486639          400    0.9143634 
  274000    28.338744          400    0.9267278 
  276000    28.387099          400   0.91349947 
  278000     28.47461          400   0.89477729 
  280000    28.542799          400   0.87551529 
  282000    28.493074          400    0.8752852 
  284000    28.280053          400   0.89225246 
  286000    28.133825          400   0.90132692 
  288000    27.995809          400   0.91290455 
  290000    27.849073          400    0.9234046 
  292000    27.984674          400   0.89649667 
  294000    27.891854          400   0.90209315 
  296000    28.029631          400   0.87639791 
  298000    28.116684          400   0.85924629 
  300000    27.886703          400   0.88365155 
  302000    27.907754          400   0.87557017 
  304000    27.735359          400   0.89237141 
  306000    27.824277          400   0.87440587 
  308000    27.978947          400    0.8546342 
  310000    28.072895          400   0.83813091 
  312000     27.93649          400   0.85325144 
  314000    27.985947          400   0.84518326 
  316000    27.698757          400   0.88314313 
  318000    27.897823          400   0.85578581 
  320000    27.911482          400     0.853698 
  322000    27.694219          400   0.88389319 
  324000    27.556825          400    0.9061962 
  326000    28.085131          400   0.83921024 
  328000    28.047779          400   0.84818353 
  330000    27.636892          400   0.90759562 
  332000    27.901485          400     0.877828 
  334000    27.969546          400   0.87096276 
  336000    28.040635          400   0.86873555 
  338000    28.011819          400   0.88013584 
  340000    28.223931          400   0.86187176 
  342000    28.167249          400    0.8748446 
  344000    28.104546          400   0.89105815 
  346000    28.208548          400   0.88717596 
  348000    28.030484          400   0.91550657 
  350000    28.068542          400   0.91793765 
  352000    28.378529          400   0.88250944 
  354000    28.071575          400   0.93296399 
  356000    28.025849          400   0.94665725 
  358000    28.594871          400    0.8788037 
  360000    28.266523          400   0.92515994 
  362000    28.416972          400   0.91287275 
  364000    28.209235          400   0.94433265 
  366000    28.084834          400   0.96555495 
  368000    28.398642          400   0.92703051 
  370000    28.310858          400   0.94210495 
  372000    28.529812          400   0.91779669 
  374000    28.604403          400   0.91055213 
  376000    28.498162          400   0.92640419 
  378000    28.395433          400   0.94264855 
  380000    28.391075          400   0.94038579 
  382000    28.815682          400   0.88128707 
  384000     28.46399          400   0.92845546 
  386000    28.619745          400   0.90342712 
  388000    28.723362          400   0.88835548 
  390000    28.626973          400   0.89743867 
  392000    28.358551          400   0.92744468 
  394000    28.411098          400   0.91344345 
  396000    28.290499          400   0.92643259 
  398000    28.230396          400   0.92756748 
  400000    28.554101          400   0.87806424 
  402000     28.37362          400   0.89422065 
  404000    28.332519          400   0.89216156 
  406000    28.163563          400   0.90637088 
  408000    27.880228          400   0.93688984 
  410000    28.068369          400   0.90689039 
  412000    27.722085          400   0.94377824 
  414000    28.183244          400   0.87721504 
  416000    28.254868          400   0.86074614 
  418000    28.045893          400    0.8819596 
  420000    28.060639          400   0.87553706 
  422000    27.783752          400    0.9025099 
  424000    28.082519          400   0.86150711 
  426000    27.974686          400   0.87477627 
  428000    27.722305          400   0.90322694 
  430000    28.028848          400    0.8591457 
  432000    27.984876          400   0.86255108 
  434000    28.103187          400   0.84493396 
  436000    28.143003          400   0.83827891 
  438000     27.79468          400   0.88206534 
  440000    27.822023          400   0.88043315 
  442000    27.951519          400   0.86353198 
  444000    27.994864          400   0.85841188 
  446000    27.862458          400   0.88005152 
  448000    27.906527          400   0.87321121 
  450000     27.96311          400   0.86786818 
  452000    28.018235          400   0.86659343 
  454000     28.02509          400   0.86914349 
  456000    28.051363          400    0.8706748 
  458000    28.095062          400   0.87400114 
  460000    28.054729          400   0.88340844 
  462000    28.188496          400   0.87413835 
  464000    28.001375          400   0.90405127 
  466000    27.840895          400   0.92992767 
  468000    27.998484          400   0.91756014 
  470000    28.214336          400   0.89752996 
  472000     28.24665          400    0.9020393 
  474000    28.296555          400   0.89574796 
  476000    28.150643          400   0.92581877 
  478000    28.407161          400   0.89683153 
  480000    28.218067          400    0.9266543 
  482000    28.082505          400   0.95023625 
  484000    28.252139          400   0.93321052 
  486000     28.45459          400    0.9106144 
  488000     28.17897          400   0.94972103 
  490000    28.344344          400   0.92961615 
  492000    28.383642          400   0.92756053 
  494000    28.243781          400    0.9475735 
  496000     28.39609          400   0.92998268 
  498000     28.22083          400    0.9538988 
  500000    28.445931          400   0.92216213 
Loop time of 296.972 on 1 procs for 500000 steps with 500 atoms

Performance: 727340.720 tau/day, 1683.659 timesteps/s
94.9% CPU use with 1 MPI tasks x no OpenMP threads

MPI task timing breakdown:
Section |  min time  |  avg time  |  max time  |%varavg| %total
---------------------------------------------------------------
Pair    | 253.92     | 253.92     | 253.92     |   0.0 | 85.50
Neigh   | 30.303     | 30.303     | 30.303     |   nan | 10.20
Comm    | 6.5277     | 6.5277     | 6.5277     |   0.0 |  2.20
Output  | 0.022234   | 0.022234   | 0.022234   |   0.0 |  0.01
Modify  | 4.9478     | 4.9478     | 4.9478     |   0.0 |  1.67
Other   |            | 1.251      |            |       |  0.42

Nlocal:    500 ave 500 max 500 min
Histogram: 1 0 0 0 0 0 0 0 0 0
Nghost:    1956 ave 1956 max 1956 min
Histogram: 1 0 0 0 0 0 0 0 0 0
Neighs:    30623 ave 30623 max 30623 min
Histogram: 1 0 0 0 0 0 0 0 0 0

Total # of neighbors = 30623
Ave neighs/atom = 61.246
Neighbor list builds = 25000
Dangerous builds not checked
Total wall time: 0:04:56
